<?xml version="1.0"?>
<VTKFile type="UnstructuredGrid" version="2.2">
  <UnstructuredGrid>
    <Piece NumberOfPoints="146" NumberOfCells="250">
      <Points>
        <DataArray type="Float64" NumberOfComponents="3" format="ascii">0.100000000000416 1 0 1.560150154043339e-18 1 0 0.07242270094929615 0.9287161546587119 0 1.927864805481964e-18 0.9042857142860055 0 0.1504496488130522 0.9205296551412812 0 0.08949214017397381 0.8499193320747833 0 0.2000000000008322 1 0 1.719486532321706e-18 0.8085714285720079 0 0.2499721953899355 0.918592877179916 0 0.1985034546041365 0.8442209309262435 0 0.07981914983884167 0.755185374623065 0 0.3000000000012484 1 0 0.1647172437488297 0.7772037251192008 0 1.707883688867638e-18 0.7128571428580415 0 0.3498228780409012 0.9196059643157829 0 0.2982782210027112 0.8494663949677289 0 0.2569918719072125 0.7888812511490499 0 0.07928054189815228 0.6639934880868408 0 0.1576018681684929 0.6958879033414609 0 0.4000000000016645 1 0 0.2419461962682328 0.7223495853541092 0 1.712151821491122e-18 0.6171428571437529 0 0.4518775995084199 0.9201756490083465 0 0.3974942312260538 0.8548415168737088 0 0.3344732598673679 0.7636851317483527 0 0.07947867006665031 0.5692879274259949 0 0.1512795608247463 0.6093594627734521 0 0.2341354436318248 0.6391200624061723 0 0.5000000000020588 1 0 0.3187788313139659 0.6664952828410461 0 1.624205945531439e-18 0.5214285714291634 0 0.5501260307078504 0.9157080124274183 0 0.4982783550718213 0.828329071072998 0 0.4270018182274791 0.7748455103032578 0 0.4034544631785331 0.6976365327000736 0 0.07539619258341246 0.4768398233222965 0 0.1430235002041239 0.5157881957117132 0 0.2175071670521008 0.5477913784569416 0 0.3009805024027953 0.5741244054537948 0 0.600000000001387 1 0 0.3874961043363944 0.6045058593620657 0 1.72722572933646e-18 0.4257142857145927 0 0.6547996067305862 0.9007657125087727 0 0.5904037090299777 0.8429143001748771 0 0.4913158036241168 0.7286208351528234 0 0.474518797626666 0.6356120108154574 0 0.08017840599731758 0.3963300372632158 0 0.1336105784902603 0.4361702689152495 0 0.2005261160939736 0.4579553459022219 0 0.2845914509445012 0.4848763822704992 0 0.3706525465932459 0.5134749221234858 0 0.7000000000006935 1 0 0.5766230053207845 0.7565871944151589 0 0.4575639698313756 0.5427700263992947 0 1.72722572933646e-18 0.33 0 0.7543567317552735 0.9205245603072644 0 0.6561937267356621 0.7952487042046709 0 0.5631276294601403 0.6660590632334465 0 0.544952063405022 0.5736116874732444 0 0.08541028510984704 0.318755522614832 0 0.1640593670304531 0.3719448045044551 0 0.2643248175403595 0.3987638367146988 0 0.353929926613926 0.4249789751401973 0 0.4393289521925454 0.4527926137698597 0 0.7999999999999999 1 0 0.7337357535262906 0.8320636705966576 0 0.6531478674937994 0.703048518595867 0 0.5264916765173424 0.482014321273292 0 0.8469936203174671 0.926623085876644 0 0.8112077680726292 0.8636996853073268 0 0.7394722959461434 0.7432808756465731 0 0.6374023867008554 0.606243392783513 0 0.6148622751988871 0.5113105424968968 0 0.1650000004123211 0.2857883830108111 0 0.2462583128866442 0.3160366088760196 0 0.336583731672659 0.336790903594801 0 0.4214663514838095 0.3644860395280298 0 0.5075735780009721 0.3921138040433801 0 0.8999999999995837 1 0 0.8192566252644851 0.7890860954018275 0 0.7391175425538949 0.6347508717092359 0 0.5953929619415562 0.4201954588069572 0 0.9267949192429045 0.9267949192429457 0 0.9016961094996302 0.8502010143542411 0 0.8288651147231505 0.6986797578104889 0 0.7022966507855875 0.5383879929024822 0 0.6812846140658225 0.4460449155380939 0 0.2333452383332417 0.2333452372498797 0 0.3251853837111932 0.241899025735952 0 0.4070425547868018 0.2792204871458516 0 0.4889892423409983 0.3038076761812549 0 0.575807666628034 0.3296092559785411 0 1 1 0 0.9105973158643605 0.7479451577286276 0 0.8337113423576483 0.5996960087510012 0 0.7760953731342628 0.5499323499660974 0 0.6649137530048489 0.3577436960937128 0 1 0.8999999999997369 0 1 0.7999999999994735 0 0.913766045698899 0.6497040788065255 0 0.7640906286465546 0.4727193298261639 0 0.7509658875245231 0.3837908847455452 0 0.2857883835188696 0.1649999995323379 0 0.4035780772005115 0.2107049125168711 0 0.4711446762158895 0.2206591250799017 0 0.553343199670507 0.2396037875864198 0 0.6436084351024102 0.2642353864160775 0 1 0.6999999999992101 0 0.9143104164701787 0.5502457745878089 0 0.8396680954092652 0.504123702910957 0 0.7333924436513715 0.2993780895277814 0 0.3648957752756742 0.1555527535917359 0 1 0.5999999999989468 0 0.8342331509598675 0.4140361328938086 0 0.8263642252375109 0.323507212697176 0 0.3187555227447488 0.08541028462499076 0 0.4407949288198664 0.150333809495205 0 0.5280186054746174 0.1570647193166024 0 0.6132366197634967 0.1702836711304234 0 0.7180649979298037 0.1971965142701444 0 1 0.4999999999986944 0 0.916368709794095 0.4515076337505133 0 0.7983682599879577 0.2535536781780329 0 0.3966376598987704 0.07841900855955966 0 0.9127558318542787 0.3564464450756911 0 0.8955554813341942 0.2551442917808648 0 0.33 1.689324295841689e-18 0 0.4804947788537359 0.07960233790655932 0 0.5713844804045297 0.08071061625978788 0 0.6649999999991135 0.08289100293350836 0 0.8239593393545865 0.1758659824302894 0 1 0.399999999998975 0 0.4257142857140301 1.714815908813953e-18 0 0.7614399244730015 0.1024449366002657 0 1 0.2999999999992664 0 0.9177753013165794 0.1474028499315248 0 0.521428571427989 1.738690752210404e-18 0 0.6171428571420018 1.785661254004595e-18 0 0.7128571428562255 2.206897582151248e-18 0 0.8564285714281221 0.08289100293390847 0 1 0.1999999999995579 0 0.808571428570815 1.785661254013214e-18 0 1 0.09999999999981467 0 0.9307084157825725 0.07051582244471351 0 0.904285714285429 1.519071642006769e-18 0 1 -1.519071642006769e-18 0 </DataArray>
      </Points>
      <Cells>
        <DataArray type="Int32" Name="connectivity" format="ascii">0 1 2 1 3 2 4 0 2 3 5 2 6 0 4 5 4 2 3 7 5 6 4 8 9 4 5 7 10 5 11 6 8 8 4 9 9 5 12 7 13 10 5 10 12 14 11 8 8 9 15 9 12 16 10 13 17 10 18 12 19 11 14 14 8 15 15 9 16 12 20 16 13 21 17 10 17 18 18 20 12 19 14 22 14 15 23 24 15 16 20 24 16 21 25 17 18 17 26 18 27 20 28 19 22 22 14 23 15 24 23 29 24 20 21 30 25 17 25 26 27 18 26 27 29 20 31 28 22 32 22 23 24 33 23 34 24 29 25 30 35 26 25 36 37 27 26 27 38 29 39 28 31 31 22 32 33 32 23 34 33 24 40 34 29 30 41 35 25 35 36 37 26 36 37 38 27 38 40 29 39 31 42 31 32 43 33 44 32 34 44 33 45 34 40 35 41 46 36 35 47 48 37 36 49 38 37 38 50 40 51 39 42 42 31 43 32 52 43 32 44 52 45 44 34 53 45 40 41 54 46 35 46 47 48 36 47 49 37 48 49 50 38 50 53 40 55 51 42 56 42 43 52 56 43 44 57 52 45 57 44 58 45 53 54 59 46 46 60 47 60 48 47 49 48 61 62 50 49 50 63 53 64 51 55 55 42 65 42 56 65 66 56 52 57 66 52 58 57 45 67 58 53 59 60 46 48 60 61 62 49 61 62 63 50 63 67 53 64 55 68 55 65 69 56 70 65 66 70 56 57 71 66 58 71 57 67 72 58 59 73 60 60 74 61 75 62 61 62 76 63 63 77 67 78 64 68 68 55 69 65 79 69 70 79 65 66 80 70 66 71 80 58 72 71 67 81 72 60 73 74 74 75 61 75 76 62 63 76 77 67 77 81 78 68 82 83 68 69 79 83 69 70 84 79 80 84 70 71 85 80 71 72 85 72 81 86 73 87 74 74 88 75 75 89 76 77 76 90 81 77 91 92 78 82 68 83 82 83 79 93 79 84 93 94 84 80 80 85 95 85 72 86 81 96 86 87 88 74 75 88 89 76 89 90 91 77 90 81 91 96 97 92 82 83 97 82 98 83 93 84 99 93 94 99 84 94 80 95 85 100 95 85 86 100 96 101 86 87 102 88 89 88 103 90 89 104 105 91 90 96 91 106 98 97 83 107 98 93 99 107 93 108 99 94 109 94 95 100 109 95 86 101 100 96 110 101 88 102 111 88 111 103 104 89 103 105 90 104 106 91 105 96 106 110 112 107 99 112 99 108 108 94 109 113 109 100 101 113 100 101 110 114 102 115 111 111 116 103 116 104 103 105 104 117 106 105 118 110 106 119 120 112 108 121 108 109 121 109 113 101 114 113 114 110 122 111 115 123 111 123 116 117 104 116 118 105 117 119 106 118 110 119 122 121 120 108 124 121 113 114 124 113 125 114 122 115 126 123 123 127 116 127 117 116 128 118 117 129 119 118 119 130 122 131 120 121 131 121 124 114 125 124 130 125 122 126 132 123 132 127 123 127 128 117 128 129 118 119 129 133 119 133 130 134 131 124 125 134 124 125 130 135 132 136 127 127 136 128 137 129 128 129 138 133 133 139 130 140 134 125 140 125 135 130 139 135 136 137 128 137 138 129 138 141 133 141 139 133 142 140 135 135 139 143 141 144 139 142 135 143 139 144 143 145 142 143 144 145 143 </DataArray>
        <DataArray type="Int32" Name="offsets" format="ascii">3 6 9 12 15 18 21 24 27 30 33 36 39 42 45 48 51 54 57 60 63 66 69 72 75 78 81 84 87 90 93 96 99 102 105 108 111 114 117 120 123 126 129 132 135 138 141 144 147 150 153 156 159 162 165 168 171 174 177 180 183 186 189 192 195 198 201 204 207 210 213 216 219 222 225 228 231 234 237 240 243 246 249 252 255 258 261 264 267 270 273 276 279 282 285 288 291 294 297 300 303 306 309 312 315 318 321 324 327 330 333 336 339 342 345 348 351 354 357 360 363 366 369 372 375 378 381 384 387 390 393 396 399 402 405 408 411 414 417 420 423 426 429 432 435 438 441 444 447 450 453 456 459 462 465 468 471 474 477 480 483 486 489 492 495 498 501 504 507 510 513 516 519 522 525 528 531 534 537 540 543 546 549 552 555 558 561 564 567 570 573 576 579 582 585 588 591 594 597 600 603 606 609 612 615 618 621 624 627 630 633 636 639 642 645 648 651 654 657 660 663 666 669 672 675 678 681 684 687 690 693 696 699 702 705 708 711 714 717 720 723 726 729 732 735 738 741 744 747 750 </DataArray>
        <DataArray type="Int8" Name="types" format="ascii">69 69 69 69 69 69 69 69 69 69 69 69 69 69 69 69 69 69 69 69 69 69 69 69 69 69 69 69 69 69 69 69 69 69 69 69 69 69 69 69 69 69 69 69 69 69 69 69 69 69 69 69 69 69 69 69 69 69 69 69 69 69 69 69 69 69 69 69 69 69 69 69 69 69 69 69 69 69 69 69 69 69 69 69 69 69 69 69 69 69 69 69 69 69 69 69 69 69 69 69 69 69 69 69 69 69 69 69 69 69 69 69 69 69 69 69 69 69 69 69 69 69 69 69 69 69 69 69 69 69 69 69 69 69 69 69 69 69 69 69 69 69 69 69 69 69 69 69 69 69 69 69 69 69 69 69 69 69 69 69 69 69 69 69 69 69 69 69 69 69 69 69 69 69 69 69 69 69 69 69 69 69 69 69 69 69 69 69 69 69 69 69 69 69 69 69 69 69 69 69 69 69 69 69 69 69 69 69 69 69 69 69 69 69 69 69 69 69 69 69 69 69 69 69 69 69 69 69 69 69 69 69 69 69 69 69 69 69 69 69 69 69 69 69 69 69 69 69 69 69 </DataArray>
      </Cells>
      <CellData>
        <DataArray type="UInt8" Name="vtkGhostType" format="ascii" RangeMin="0" RangeMax="1">0 0 0 0 0 0 0 0 0 0 0 0 0 0 0 0 0 0 0 0 0 0 0 0 0 0 0 0 0 0 0 0 0 0 0 0 0 0 0 0 0 0 0 0 0 0 0 0 0 0 0 0 0 0 0 0 0 0 0 0 0 0 0 0 0 0 0 0 0 0 0 0 0 0 0 0 0 0 0 0 0 0 0 0 0 0 0 0 0 0 0 0 0 0 0 0 0 0 0 0 0 0 0 0 0 0 0 0 0 0 0 0 0 0 0 0 0 0 0 0 0 0 0 0 0 0 0 0 0 0 0 0 0 0 0 0 0 0 0 0 0 0 0 0 0 0 0 0 0 0 0 0 0 0 0 0 0 0 0 0 0 0 0 0 0 0 0 0 0 0 0 0 0 0 0 0 0 0 0 0 0 0 0 0 0 0 0 0 0 0 0 0 0 0 0 0 0 0 0 0 0 0 0 0 0 0 0 0 0 0 0 0 0 0 0 0 0 0 0 0 0 0 0 0 0 0 0 0 0 0 0 0 0 0 0 0 0 0 0 0 0 0 0 0 0 0 0 0 0 0 </DataArray>
        <DataArray type="Int64" IdType="1" Name="vtkOriginalCellIds" format="ascii" RangeMin="0" RangeMax="249">0 1 2 3 4 5 6 7 8 9 10 11 12 13 14 15 16 17 18 19 20 21 22 23 24 25 26 27 28 29 30 31 32 33 34 35 36 37 38 39 40 41 42 43 44 45 46 47 48 49 50 51 52 53 54 55 56 57 58 59 60 61 62 63 64 65 66 67 68 69 70 71 72 73 74 75 76 77 78 79 80 81 82 83 84 85 86 87 88 89 90 91 92 93 94 95 96 97 98 99 100 101 102 103 104 105 106 107 108 109 110 111 112 113 114 115 116 117 118 119 120 121 122 123 124 125 126 127 128 129 130 131 132 133 134 135 136 137 138 139 140 141 142 143 144 145 146 147 148 149 150 151 152 153 154 155 156 157 158 159 160 161 162 163 164 165 166 167 168 169 170 171 172 173 174 175 176 177 178 179 180 181 182 183 184 185 186 187 188 189 190 191 192 193 194 195 196 197 198 199 200 201 202 203 204 205 206 207 208 209 210 211 212 213 214 215 216 217 218 219 220 221 222 223 224 225 226 227 228 229 230 231 232 233 234 235 236 237 238 239 240 241 242 243 244 245 246 247 248 249 </DataArray>
      </CellData>
      <PointData Vectors="u">
        <DataArray type="Int64" IdType="1" Name="vtkOriginalPointIds" format="ascii" RangeMin="0" RangeMax="145">0 1 2 3 4 5 6 7 8 9 10 11 12 13 14 15 16 17 18 19 20 21 22 23 24 25 26 27 28 29 30 31 32 33 34 35 36 37 38 39 40 41 42 43 44 45 46 47 48 49 50 51 52 53 54 55 56 57 58 59 60 61 62 63 64 65 66 67 68 69 70 71 72 73 74 75 76 77 78 79 80 81 82 83 84 85 86 87 88 89 90 91 92 93 94 95 96 97 98 99 100 101 102 103 104 105 106 107 108 109 110 111 112 113 114 115 116 117 118 119 120 121 122 123 124 125 126 127 128 129 130 131 132 133 134 135 136 137 138 139 140 141 142 143 144 145 </DataArray>
        <DataArray type="UInt8" Name="vtkGhostType" format="ascii" RangeMin="0" RangeMax="0">0 0 0 0 0 0 0 0 0 0 0 0 0 0 0 0 0 0 0 0 0 0 0 0 0 0 0 0 0 0 0 0 0 0 0 0 0 0 0 0 0 0 0 0 0 0 0 0 0 0 0 0 0 0 0 0 0 0 0 0 0 0 0 0 0 0 0 0 0 0 0 0 0 0 0 0 0 0 0 0 0 0 0 0 0 0 0 0 0 0 0 0 0 0 0 0 0 0 0 0 0 0 0 0 0 0 0 0 0 0 0 0 0 0 0 0 0 0 0 0 0 0 0 0 0 0 0 0 0 0 0 0 0 0 0 0 0 0 0 0 0 0 0 0 0 0 </DataArray>
        <DataArray type="Float64" Name="u" format="ascii" NumberOfComponents="3">4.907320117590518e-05 -0.0002073935562312 0 2.999132192676735e-20 -0.0002091935778571481 0 3.595032557437977e-05 -0.0002018413073762138 0 0 -0.0002010850152995847 0 7.494903269554952e-05 -0.0001973835254283222 0 4.50473549037006e-05 -0.0001948764598686569 0 9.866581594328973e-05 -0.0002023137831518955 0 0 -0.0001939676831529217 0 0.0001255588230463252 -0.0001894856802496667 0 0.0001009866227312144 -0.000186269967992978 0 4.130442450056325e-05 -0.0001881771755722364 0 0.0001491092846151151 -0.0001948012976487231 0 8.5142865909751e-05 -0.0001830474085994759 0 0 -0.0001879482713958956 0 0.0001773232748367683 -0.0001797003978376453 0 0.0001530226747531075 -0.0001760488691623416 0 0.0001338532678613884 -0.0001735375709458556 0 4.290571289035516e-05 -0.0001823302016778692 0 8.422178665575129e-05 -0.000176650376217801 0 0.0002004545469448439 -0.0001859533263860159 0 0.0001289401695814259 -0.0001676433457698377 0 0 -0.0001831294877490456 0 0.0002310590038224548 -0.0001690241968601161 0 0.0002057667523546652 -0.0001649560492966106 0 0.0001771658252686915 -0.0001594300267018373 0 4.683913841123043e-05 -0.0001770776913294736 0 8.576037111040606e-05 -0.0001700866442392774 0 0.0001308457824518105 -0.0001587240319545871 0 0.0002525028449991782 -0.0001768204351083909 0 0.0001767556953368702 -0.0001470673575788143 0 0 -0.0001788386824424079 0 0.0002836753668421121 -0.0001583615149740364 0 0.000262000695408742 -0.000148757941021874 0 0.0002274619337239147 -0.0001482524654478573 0 0.0002216824242515968 -0.0001381612917011908 0 5.233327274717221e-05 -0.0001723876544531303 0 9.096768553598617e-05 -0.000163469511727599 0 0.0001322726687481545 -0.0001502674039437334 0 0.000178807517676237 -0.0001351533263173751 0 0.0003049152145054386 -0.000168207138836178 0 0.0002253435787547799 -0.0001231956567563761 0 0 -0.0001721708900160837 0 0.000340317201600148 -0.0001465306751983807 0 0.0003107307972699458 -0.0001417078781013626 0 0.0002676881550052206 -0.0001313199542988177 0 0.0002708473656853778 -0.0001151626644141236 0 7.102509042281227e-05 -0.0001644536414281233 0 0.0001018157154985318 -0.0001580106945315698 0 0.0001410669479242994 -0.0001418036502932311 0 0.0001882193338301191 -0.0001226918446579377 0 0.0002342107282947243 -0.0001074805416031044 0 0.0003573318149321216 -0.00016060522499198 0 0.000311750069562392 -0.0001269285892631897 0 0.0002789979862758739 -9.763927787758695e-05 0 0 -0.0001579449228989264 0 0.0003913346825630042 -0.0001429087463580821 0 0.000350628848621702 -0.0001268908574261811 0 0.0003161544894915338 -0.0001102256148829189 0 0.0003223231202302504 -9.254629700972883e-05 0 0.0001167083166811835 -0.0001461000150805746 0 0.0001514247514944267 -0.0001408793875795009 0 0.0002068498397915126 -0.0001114916769706558 0 0.0002521890410515649 -9.102750128195825e-05 0 0.0002932912487855001 -7.959348396657864e-05 0 0.000409454703844854 -0.0001542270886296876 0 0.0003882863452956441 -0.0001280719578824196 0 0.0003602226399460321 -0.0001091045611370349 0 0.000333940281607528 -7.396970280705991e-05 0 0.000439137153555368 -0.0001387227083583633 0 0.0004259524685051599 -0.0001292193046052073 0 0.0004010453496885985 -0.0001107498865612303 0 0.000366882826245107 -9.054732886832668e-05 0 0.0003743822366724236 -7.210632212137695e-05 0 0.0002258025160381241 -0.0001295598460694293 0 0.0002469779282443525 -0.0001026532723249817 0 0.0002843450302423244 -7.478356013599197e-05 0 0.0003176173054747108 -6.118109899789163e-05 0 0.0003524178401913926 -5.526257614954286e-05 0 0.0004610829548348284 -0.00014908462300825 0 0.0004376654799647889 -0.0001149332392464665 0 0.0004160698308626723 -8.944462986881212e-05 0 0.0003882649108881702 -5.390141786991274e-05 0 0.0004802397022459746 -0.0001350117114305522 0 0.0004739927514521638 -0.0001223266436957149 0 0.0004534283583247877 -9.745690215832016e-05 0 0.0004141390432599627 -7.218965850642389e-05 0 0.0004240217169611835 -5.477044109563666e-05 0 0.000322434880475161 -0.0001039761570987449 0 0.0003444116099019496 -5.874862271976249e-05 0 0.0003545554925825993 -4.378776536895299e-05 0 0.0003791064462103597 -3.756055150642472e-05 0 0.0004079733974851747 -3.651429052210128e-05 0 0.0005121117245833464 -0.0001450712483928608 0 0.0004890753668835164 -0.0001034088067002289 0 0.0004698771037202509 -7.866931397710494e-05 0 0.0004494012066041498 -7.145153714112925e-05 0 0.0004391464557394636 -3.869771721193939e-05 0 0.0005196634180621953 -0.0001275620392864475 0 0.0005286666937400854 -0.000109903019756484 0 0.0005026900061883034 -8.551726483362018e-05 0 0.0004583069867114505 -5.725755953708397e-05 0 0.0004711628437996097 -4.175922090456096e-05 0 0.0003986256603726241 -7.190026686536165e-05 0 0.0003927908078143771 -3.16517010526077e-05 0 0.0004101726822064453 -2.345833903073516e-05 0 0.0004311881843904435 -2.162612839535033e-05 0 0.0004566553736578763 -2.35945843167142e-05 0 0.0005391830453820282 -9.232734065868377e-05 0 0.0005168223685865134 -6.797676553962338e-05 0 0.0004885183827244439 -6.128463825733817e-05 0 0.0004828172429949279 -2.871479830089322e-05 0 0.000417567522931176 -3.182358714470563e-05 0 0.0005511097999008589 -7.51736178658727e-05 0 0.0005022847659719995 -4.603554936180286e-05 0 0.0005157643582640526 -3.218320103943803e-05 0 0.0004468217611536726 -3.573294244619527e-05 0 0.0004349363499391432 -1.618369883590869e-05 0 0.000452681037829459 -1.141927244760933e-05 0 0.0004721915725603858 -1.185028651733309e-05 0 0.0004992281828418761 -1.552680587922961e-05 0 0.0005640851970135213 -5.887046404551046e-05 0 0.0005329093065102903 -5.161694694010555e-05 0 0.0005172907778655134 -2.280528505480086e-05 0 0.0004573531312801718 -1.222528082029279e-05 0 0.0005462283630079787 -3.735622252183183e-05 0 0.000554187148934677 -2.406061556463271e-05 0 0.0004658504939609892 0 0 0.0004661474279308385 -5.866924107564043e-06 0 0.0004811989426227686 -4.601437356858284e-06 0 0.0005023180386127968 -4.946929250167333e-06 0 0.0005383673839164453 -1.458266654553691e-05 0 0.0005774024232664443 -4.387490819178043e-05 0 0.0004701350726540035 0 0 0.0005273245837020957 -7.274958771846315e-06 0 0.0005899825995274735 -3.055489405082063e-05 0 0.0005745292852028837 -1.293844677878918e-05 0 0.0004799636262137086 0 0 0.0004966650529253515 0 0 0.0005192269320518629 0 0 0.0005585706773654234 -6.616806963845944e-06 0 0.000600468545056761 -1.903486356187216e-05 0 0.0005464893967289082 0 0 0.000607473707103464 -9.065186088458791e-06 0 0.000584126395300323 -6.060521967939603e-06 0 0.0005768880643655225 0 0 0.0006099411969047773 1.352700452708059e-22 0 </DataArray>
      </PointData>
    </Piece>
  </UnstructuredGrid>
</VTKFile>
