<?xml version="1.0"?>
<VTKFile type="UnstructuredGrid" version="2.2">
  <UnstructuredGrid>
    <Piece NumberOfPoints="541" NumberOfCells="250">
      <Points>
        <DataArray type="Float64" NumberOfComponents="3" format="ascii">0.100000000000416 0.9999999999999998 0 -6.099109172739477e-18 1 0 0.07242270094929612 0.9287161546587116 0 0.03621135047464808 0.964358077329356 0 0.08621135047485606 0.9643580773293561 0 0.050000000000208 1 0 -7.536619400667012e-18 0.9042857142860056 0 0.03621135047464807 0.9165009344723586 0 1.008291173475761e-17 0.9521428571430006 0 0.1504496488130522 0.9205296551412808 0 0.1114361748811742 0.9246229048999965 0 0.1252248244067341 0.9602648275706405 0 0.08949214017397381 0.8499193320747835 0 0.08095742056163498 0.8893177433667475 0 0.0447460700869869 0.8771025231803943 0 0.2000000000008322 0.9999999999999998 0 0.1752248244069423 0.9602648275706407 0 0.1500000000006241 1 0 0.119970894493513 0.8852244936080322 0 -6.722004324074814e-18 0.8085714285720081 0 0.0447460700869869 0.8292453803233956 0 1.245937169562996e-17 0.8564285714290383 0 0.2499721953899355 0.9185928771799157 0 0.2002109221014939 0.9195612661605987 0 0.2249860976953838 0.9592964385899579 0 0.1985034546041365 0.8442209309262433 0 0.1439977973890551 0.8470701315005136 0 0.1744765517085943 0.8823752930337623 0 0.07981914983884167 0.7551853746230651 0 0.08465564500640776 0.8025523533489244 0 0.03990957491942083 0.7818784015975364 0 0.3000000000012483 0.9999999999999998 0 0.2749860976955919 0.9592964385899581 0 0.2500000000010403 1 0 0.2242378249970361 0.8814069040530799 0 0.1647172437488296 0.7772037251192004 0 0.1271046919614017 0.8135615285969922 0 0.1816103491764832 0.8107123280227224 0 -6.676645222736288e-18 0.7128571428580416 0 0.03990957491942084 0.7340212587405535 0 1.111266815541563e-17 0.7607142857150447 0 0.1222681967938357 0.7661945498711329 0 0.3498228780409011 0.9196059643157826 0 0.2998975367154184 0.9190994207478496 0 0.3249114390210747 0.9598029821578914 0 0.2982782210027112 0.849466394967729 0 0.2483908378034239 0.8468436629469864 0 0.2741252081963234 0.8840296360738225 0 0.2569918719072125 0.7888812511490496 0 0.2108545578280211 0.7830424881341255 0 0.2277476632556745 0.8165510910376468 0 0.07928054189815228 0.6639934880868409 0 0.03964027094907614 0.6884253154724411 0 0.079549845868497 0.7095894313549531 0 0.1576018681684929 0.6958879033414607 0 0.1611595559586613 0.7365458142303307 0 0.1187105090036673 0.7255366389822628 0 0.4000000000016644 0.9999999999999998 0 0.3749114390212829 0.9598029821578916 0 0.3500000000014564 1 0 0.3240505495218062 0.8845361796417561 0 0.2776350464549618 0.8191738230583895 0 0.2419461962682327 0.7223495853541092 0 0.2494690340877226 0.7556154182515796 0 0.2033317200085314 0.7497766552366552 0 -6.693330672381564e-18 0.6171428571437531 0 0.03964027094907614 0.6405681726152969 0 1.103768149716585e-17 0.665000000001013 0 0.1184412050333226 0.6799406957141508 0 0.1997740322183629 0.7091187443477851 0 0.4518775995084198 0.9201756490083461 0 0.4008502387746606 0.9198908066620648 0 0.4259387997550421 0.9600878245041732 0 0.3974942312260537 0.8548415168737085 0 0.3478862261143825 0.8521539559207189 0 0.3736585546334775 0.8872237405947458 0 0.3344732598673678 0.7636851317483524 0 0.2957325658872902 0.7762831914487014 0 0.3163757404350397 0.806575763358041 0 0.2882097280678004 0.7430173585512311 0 0.07947867006665031 0.569287927425995 0 0.07937960598240132 0.6166407077564179 0 0.03973933503332516 0.593215392284874 0 0.1512795608247463 0.6093594627734519 0 0.1152800513614493 0.6366764754301464 0 0.1544407144966196 0.6526236830574564 0 0.2341354436318247 0.6391200624061723 0 0.2380408199500288 0.6807348238801408 0 0.1958686559001588 0.6675039828738166 0 0.5000000000020586 0.9999999999999998 0 0.4759387997552393 0.9600878245041733 0 0.4500000000018617 1 0 0.4246859153672369 0.8875085829410276 0 0.3659837455467109 0.8092633243110308 0 0.3187788313139658 0.6664952828410461 0 0.2803625137910994 0.6944224340975776 0 0.326626045590667 0.7150902072946995 0 -6.349523060415383e-18 0.5214285714291635 0 0.03973933503332518 0.5453582494275793 0 1.106526551169375e-17 0.5692857142864659 0 0.1153791154456983 0.5893236950997235 0 0.1927075022282855 0.6242397625898122 0 0.2764571374728954 0.6528076726236093 0 0.5501260307078502 0.915708012427418 0 0.5010018151081351 0.9179418307178825 0 0.5250630153549545 0.9578540062137091 0 0.4982783550718213 0.8283290710729982 0 0.4478862931489376 0.8415852939733535 0 0.4750779772901206 0.8742523600406722 0 0.427001818227479 0.7748455103032574 0 0.4122480247267665 0.8148435135884833 0 0.3807375390474236 0.7692653210258054 0 0.403454463178533 0.6976365327000734 0 0.3611166472462496 0.68206590777056 0 0.3689638615229505 0.7306608322242132 0 0.07539619258341246 0.4768398233222966 0 0.03769809629170623 0.4991341973757298 0 0.07743743132503142 0.5230638753741458 0 0.1430235002041239 0.5157881957117132 0 0.1112510851353871 0.542538061568854 0 0.1471515305144351 0.5625738292425826 0 0.2175071670521008 0.5477913784569415 0 0.1843933639384235 0.5785754206151968 0 0.2258213053419628 0.5934557204315569 0 0.3009805024027953 0.5741244054537947 0 0.3098796668583806 0.6203098441474205 0 0.2675579730173101 0.6066222339299836 0 0.6000000000013868 0.9999999999999998 0 0.5750630153546187 0.9578540062137093 0 0.5500000000016855 1 0 0.5242021928898359 0.8720185417502083 0 0.4626400866496502 0.801587290688128 0 0.4152281407030061 0.7362410215016657 0 0.3874961043363942 0.6045058593620657 0 0.3531374678251802 0.635500571101556 0 0.3954752837574638 0.6510711960310698 0 -6.752259237283005e-18 0.4257142857145928 0 0.03769809629170624 0.4512770545184447 0 1.049689040854147e-17 0.4735714285718152 0 0.1092098463937682 0.4963140095170049 0 0.1802653336281123 0.5317897870843273 0 0.2592438347274481 0.5609578919553682 0 0.3442383033695948 0.5893151324079303 0 0.6547996067305863 0.9007657125087728 0 0.6024628187192184 0.9082368624680957 0 0.6273998033659864 0.9503828562543863 0 0.5904037090299777 0.8429143001748768 0 0.5443410320508996 0.8356216856239375 0 0.5702648698689141 0.8793111563011478 0 0.4913158036241166 0.7286208351528234 0 0.4947970793479691 0.7784749531129109 0 0.4591588109257981 0.7517331727280407 0 0.4473851334013251 0.7131286839264486 0 0.4745187976266659 0.6356120108154574 0 0.4310074509815303 0.6200589350887616 0 0.4389866304025997 0.6666242717577655 0 0.08017840599731756 0.3963300372632156 0 0.0400892029986588 0.4110221614889042 0 0.07778729929036506 0.4365849302927562 0 0.1336105784902602 0.4361702689152493 0 0.1045033855368364 0.456505046118773 0 0.1383170393471921 0.4759792323134814 0 0.2005261160939736 0.457955345902222 0 0.1717748081490487 0.4868717708069676 0 0.2090166415730372 0.5028733621795818 0 0.2845914509445011 0.4848763822704991 0 0.2510493089983011 0.5163338803637204 0 0.2927859766736483 0.529500393862147 0 0.3706525465932458 0.5134749221234857 0 0.3790743254648202 0.5589903907427758 0 0.3358165244980207 0.5437996637886403 0 0.7000000000006933 0.9999999999999998 0 0.6773998033656399 0.9503828562543865 0 0.6500000000010594 1 0 0.622601657880282 0.871840006341825 0 0.5766230053207845 0.7565871944151585 0 0.5835133571753812 0.7997507472950179 0 0.5374506801963029 0.7924581327440785 0 0.5339694044724507 0.7426040147839912 0 0.4829173006253913 0.6821164229841405 0 0.4575639698313755 0.5427700263992946 0 0.422530037083885 0.5736379428806803 0 0.4660413837290209 0.5891910186073761 0 -2.760060049091618e-18 0.3300000000000001 0 0.04008920299865879 0.3631650186316079 0 1.116268490553127e-17 0.3778571428572964 0 0.106894492243789 0.4162501530892325 0 0.1670683472921169 0.4470628074087357 0 0.2425587835192373 0.4714158640863606 0 0.3276219987688735 0.4991756521969924 0 0.4141082582123107 0.5281224742613903 0 0.7543567317552732 0.920524560307264 0 0.70457816924293 0.9106451364080187 0 0.7271783658779833 0.9602622801536321 0 0.6561937267356619 0.7952487042046705 0 0.62329871788282 0.8190815021897742 0 0.6554966667331245 0.8480072083567221 0 0.6164083660282234 0.775917949309915 0 0.5631276294601403 0.6660590632334465 0 0.5698753173904625 0.7113231288243027 0 0.5272217165421286 0.697339949193135 0 0.5188232135434032 0.6508355370244521 0 0.5449520634050221 0.5736116874732445 0 0.5012580166181988 0.5581908569362696 0 0.509735430515844 0.604611849144351 0 0.08541028510984704 0.318755522614832 0 0.0827943455535823 0.3575427799390237 0 0.04307364353137579 0.3271768042403557 0 0.1640593670304531 0.3719448045044552 0 0.1488349727603567 0.4040575367098522 0 0.1221188865138854 0.3841374208838354 0 0.1822927415622135 0.4149500752033386 0 0.2643248175403595 0.3987638367146988 0 0.2324254668171665 0.4283595913084604 0 0.2744581342424303 0.441820109492599 0 0.3539299266139259 0.4249789751401972 0 0.3192606887792137 0.4549276787053483 0 0.3622912366035859 0.4692269486318416 0 0.4393289521925455 0.4527926137698598 0 0.4484464610119606 0.4977813200845772 0 0.4049907493928957 0.4831337679466727 0 0.7999999999999996 0.9999999999999998 0 0.7771783658776368 0.9602622801536324 0 0.750000000000386 1 0 0.7337357535262904 0.8320636705966573 0 0.6942676801284384 0.8664146915527151 0 0.7440462426407823 0.8762941154519612 0 0.6949647401309763 0.8136561874006643 0 0.6531478674937995 0.7030485185958671 0 0.614885436407292 0.729817856505513 0 0.6546707971147306 0.7491486114002689 0 0.6081377484769699 0.6845537909146568 0 0.5540398464325812 0.6198353753533455 0 0.5264916765173425 0.4820143212732921 0 0.4920278231743592 0.5123921738362933 0 0.5357218699611822 0.5278130043732683 0 0.1247348260701501 0.3453501635596435 0 0.2141920922854063 0.385354320609577 0 0.3091273720771429 0.4118714059274482 0 0.3966294394032358 0.4388857944550285 0 0.4829103143549439 0.4674034675215759 0 0.8469936203174672 0.9266230858766441 0 0.8006751760363704 0.9235738230919543 0 0.8234968101587334 0.963311542938322 0 0.8112077680726288 0.8636996853073264 0 0.7724717607994599 0.8478816779519922 0 0.7827822499139514 0.8921121228072956 0 0.739
[...]
      <CellData>
        <DataArray type="UInt8" Name="vtkGhostType" format="ascii" RangeMin="0" RangeMax="1">0 0 0 0 0 0 0 0 0 0 0 0 0 0 0 0 0 0 0 0 0 0 0 0 0 0 0 0 0 0 0 0 0 0 0 0 0 0 0 0 0 0 0 0 0 0 0 0 0 0 0 0 0 0 0 0 0 0 0 0 0 0 0 0 0 0 0 0 0 0 0 0 0 0 0 0 0 0 0 0 0 0 0 0 0 0 0 0 0 0 0 0 0 0 0 0 0 0 0 0 0 0 0 0 0 0 0 0 0 0 0 0 0 0 0 0 0 0 0 0 0 0 0 0 0 0 0 0 0 0 0 0 0 0 0 0 0 0 0 0 0 0 0 0 0 0 0 0 0 0 0 0 0 0 0 0 0 0 0 0 0 0 0 0 0 0 0 0 0 0 0 0 0 0 0 0 0 0 0 0 0 0 0 0 0 0 0 0 0 0 0 0 0 0 0 0 0 0 0 0 0 0 0 0 0 0 0 0 0 0 0 0 0 0 0 0 0 0 0 0 0 0 0 0 0 0 0 0 0 0 0 0 0 0 0 0 0 0 0 0 0 0 0 0 0 0 0 0 0 0 </DataArray>
        <DataArray type="Int64" IdType="1" Name="vtkOriginalCellIds" format="ascii" RangeMin="0" RangeMax="249">0 1 2 3 4 5 6 7 8 9 10 11 12 13 14 15 16 17 18 19 20 21 22 23 24 25 26 27 28 29 30 31 32 33 34 35 36 37 38 39 40 41 42 43 44 45 46 47 48 49 50 51 52 53 54 55 56 57 58 59 60 61 62 63 64 65 66 67 68 69 70 71 72 73 74 75 76 77 78 79 80 81 82 83 84 85 86 87 88 89 90 91 92 93 94 95 96 97 98 99 100 101 102 103 104 105 106 107 108 109 110 111 112 113 114 115 116 117 118 119 120 121 122 123 124 125 126 127 128 129 130 131 132 133 134 135 136 137 138 139 140 141 142 143 144 145 146 147 148 149 150 151 152 153 154 155 156 157 158 159 160 161 162 163 164 165 166 167 168 169 170 171 172 173 174 175 176 177 178 179 180 181 182 183 184 185 186 187 188 189 190 191 192 193 194 195 196 197 198 199 200 201 202 203 204 205 206 207 208 209 210 211 212 213 214 215 216 217 218 219 220 221 222 223 224 225 226 227 228 229 230 231 232 233 234 235 236 237 238 239 240 241 242 243 244 245 246 247 248 249 </DataArray>
      </CellData>
      <PointData Vectors="u">
        <DataArray type="Int64" IdType="1" Name="vtkOriginalPointIds" format="ascii" RangeMin="0" RangeMax="540">0 1 2 3 4 5 6 7 8 9 10 11 12 13 14 15 16 17 18 19 20 21 22 23 24 25 26 27 28 29 30 31 32 33 34 35 36 37 38 39 40 41 42 43 44 45 46 47 48 49 50 51 52 53 54 55 56 57 58 59 60 61 62 63 64 65 66 67 68 69 70 71 72 73 74 75 76 77 78 79 80 81 82 83 84 85 86 87 88 89 90 91 92 93 94 95 96 97 98 99 100 101 102 103 104 105 106 107 108 109 110 111 112 113 114 115 116 117 118 119 120 121 122 123 124 125 126 127 128 129 130 131 132 133 134 135 136 137 138 139 140 141 142 143 144 145 146 147 148 149 150 151 152 153 154 155 156 157 158 159 160 161 162 163 164 165 166 167 168 169 170 171 172 173 174 175 176 177 178 179 180 181 182 183 184 185 186 187 188 189 190 191 192 193 194 195 196 197 198 199 200 201 202 203 204 205 206 207 208 209 210 211 212 213 214 215 216 217 218 219 220 221 222 223 224 225 226 227 228 229 230 231 232 233 234 235 236 237 238 239 240 241 242 243 244 245 246 247 248 249 250 251 252 253 254 255 256 257 258 259 260 261 262 263 264 265 266 267 268 269 270 271 272 273 274 275 276 277 278 279 280 281 282 283 284 285 286 287 288 289 290 291 292 293 294 295 296 297 298 299 300 301 302 303 304 305 306 307 308 309 310 311 312 313 314 315 316 317 318 319 320 321 322 323 324 325 326 327 328 329 330 331 332 333 334 335 336 337 338 339 340 341 342 343 344 345 346 347 348 349 350 351 352 353 354 355 356 357 358 359 360 361 362 363 364 365 366 367 368 369 370 371 372 373 374 375 376 377 378 379 380 381 382 383 384 385 386 387 388 389 390 391 392 393 394 395 396 397 398 399 400 401 402 403 404 405 406 407 408 409 410 411 412 413 414 415 416 417 418 419 420 421 422 423 424 425 426 427 428 429 430 431 432 433 434 435 436 437 438 439 440 441 442 443 444 445 446 447 448 449 450 451 452 453 454 455 456 457 458 459 460 461 462 463 464 465 466 467 468 469 470 471 472 473 474 475 476 477 478 479 480 481 482 483 484 485 486 487 488 489 490 491 492 493 494 495 496 497 498 499 500 501 502 503 504 505 506 507 508 509 510 511 512 513 514 515 516 517 518 519 520 521 522 523 524 525 526 527 528 529 530 531 532 533 534 535 536 537 538 539 540 </DataArray>
        <DataArray type="UInt8" Name="vtkGhostType" format="ascii" RangeMin="0" RangeMax="0">0 0 0 0 0 0 0 0 0 0 0 0 0 0 0 0 0 0 0 0 0 0 0 0 0 0 0 0 0 0 0 0 0 0 0 0 0 0 0 0 0 0 0 0 0 0 0 0 0 0 0 0 0 0 0 0 0 0 0 0 0 0 0 0 0 0 0 0 0 0 0 0 0 0 0 0 0 0 0 0 0 0 0 0 0 0 0 0 0 0 0 0 0 0 0 0 0 0 0 0 0 0 0 0 0 0 0 0 0 0 0 0 0 0 0 0 0 0 0 0 0 0 0 0 0 0 0 0 0 0 0 0 0 0 0 0 0 0 0 0 0 0 0 0 0 0 0 0 0 0 0 0 0 0 0 0 0 0 0 0 0 0 0 0 0 0 0 0 0 0 0 0 0 0 0 0 0 0 0 0 0 0 0 0 0 0 0 0 0 0 0 0 0 0 0 0 0 0 0 0 0 0 0 0 0 0 0 0 0 0 0 0 0 0 0 0 0 0 0 0 0 0 0 0 0 0 0 0 0 0 0 0 0 0 0 0 0 0 0 0 0 0 0 0 0 0 0 0 0 0 0 0 0 0 0 0 0 0 0 0 0 0 0 0 0 0 0 0 0 0 0 0 0 0 0 0 0 0 0 0 0 0 0 0 0 0 0 0 0 0 0 0 0 0 0 0 0 0 0 0 0 0 0 0 0 0 0 0 0 0 0 0 0 0 0 0 0 0 0 0 0 0 0 0 0 0 0 0 0 0 0 0 0 0 0 0 0 0 0 0 0 0 0 0 0 0 0 0 0 0 0 0 0 0 0 0 0 0 0 0 0 0 0 0 0 0 0 0 0 0 0 0 0 0 0 0 0 0 0 0 0 0 0 0 0 0 0 0 0 0 0 0 0 0 0 0 0 0 0 0 0 0 0 0 0 0 0 0 0 0 0 0 0 0 0 0 0 0 0 0 0 0 0 0 0 0 0 0 0 0 0 0 0 0 0 0 0 0 0 0 0 0 0 0 0 0 0 0 0 0 0 0 0 0 0 0 0 0 0 0 0 0 0 0 0 0 0 0 0 0 0 0 0 0 0 0 0 0 0 0 0 0 0 0 0 0 0 0 0 0 0 0 0 0 0 0 0 0 0 0 0 0 0 0 0 0 0 0 0 0 0 0 0 0 0 0 0 0 0 0 0 0 0 0 0 0 0 0 0 0 0 0 0 0 0 0 0 0 0 0 0 </DataArray>
        <DataArray type="Float64" Name="u" format="ascii" NumberOfComponents="3">4.907320117591122e-05 -0.000207393556231226 0 2.999132192677113e-20 -0.0002091935778571744 0 3.581540548176413e-05 -0.0002023030907232464 0 1.78117667470991e-05 -0.0002059987359906546 0 4.245893175758745e-05 -0.0002047837964622963 0 2.450165476632715e-05 -0.0002087383221715217 0 0 -0.000201617673856055 0 1.792583348676454e-05 -0.0002022363543824111 0 0 -0.0002052882487936438 0 7.481353401539156e-05 -0.000197864611487655 0 5.524966444883282e-05 -0.000200398041271258 0 6.181333285255388e-05 -0.0002028143041769693 0 4.493494442975872e-05 -0.0001955561683341148 0 4.031811434898593e-05 -0.0001989019798158104 0 2.230606050110565e-05 -0.000199146031372323 0 9.866581594330208e-05 -0.0002023137831519209 0 8.675051320069386e-05 -0.0001999726312513436 0 7.377774946111717e-05 -0.0002052202774125385 0 5.991090883780701e-05 -0.0001966698038349235 0 0 -0.000195128619939981 0 2.253378659172423e-05 -0.0001958275365429795 0 0 -0.0001982307988312302 0 0.0001253605408593861 -0.0001897840176183348 0 9.994778498351588e-05 -0.0001941851897418232 0 0.0001118124916427706 -0.0001963097326633859 0 0.000100673686590294 -0.0001869051720310513 0 7.261399756353914e-05 -0.000191913979018891 0 8.752692731862108e-05 -0.000192661479458511 0 4.118031478739444e-05 -0.000189616107967423 0 4.300960222902925e-05 -0.0001924345509289768 0 2.036242763971885e-05 -0.0001929698845821492 0 0.0001491092846151338 -0.0001948012976487475 0 0.0001372338107294536 -0.0001921424384717266 0 0.0001237712451317309 -0.0001987951728579665 0 0.0001130255705719896 -0.0001881905749881008 0 8.491412190609772e-05 -0.0001841492586532595 0 6.456669547864929e-05 -0.0001904701920621075 0 9.279411608823758e-05 -0.0001854079233357023 0 0 -0.0001898740894211312 0 2.072676624597439e-05 -0.0001902664520990854 0 0 -0.0001923390037851036 0 6.302414994153427e-05 -0.0001872826502534308 0 0.0001770995564117804 -0.0001798987071320052 0 0.0001511016766072489 -0.0001850023015329616 0 0.0001628563176919386 -0.0001876272164313446 0 0.0001527112023751407 -0.0001765367002934887 0 0.0001265535741345608 -0.0001819734269352399 0 0.0001387867150155487 -0.0001834516976585725 0 0.0001333809314176778 -0.0001743192070797824 0 0.0001090505058685248 -0.0001795032434591557 0 0.0001167489487958286 -0.0001809935168717363 0 4.283291032211471e-05 -0.0001844515367808331 0 2.105093136623357e-05 -0.000187993021538129 0 4.186177823202841e-05 -0.0001869222669181968 0 8.414915630460894e-05 -0.0001781540389319051 0 8.438619645037606e-05 -0.0001810840419946981 0 6.219160139576503e-05 -0.0001847071308988045 0 0.000200454546944869 -0.0001859533263860393 0 0.0001887645469199129 -0.0001827919764954474 0 0.0001746768346341149 -0.000190474500307091 0 0.0001649037346482029 -0.0001780613387480739 0 0.000143040406741552 -0.0001753017477487184 0 0.0001288089954858559 -0.0001686933478575588 0 0.0001309998172299215 -0.0001714585582984268 0 0.0001064010876319931 -0.000177099450293729 0 0 -0.0001859408814850051 0 2.173526432410087e-05 -0.0001858927318627878 0 0 -0.0001877539358331758 0 6.355639408750822e-05 -0.0001816565955868998 0 0.0001064722920053588 -0.0001735524389695177 0 0.0002309033071302082 -0.000169127045762207 0 0.000203910365387527 -0.0001745072346960039 0 0.0002154007628645542 -0.0001777928211437612 0 0.0002053944437546306 -0.0001652506605076062 0 0.0001789593212428658 -0.0001709042903793822 0 0.0001909997609733905 -0.0001728084657866819 0 0.0001769528077434137 -0.0001600954200783441 0 0.000154953087773165 -0.0001674617309125125 0 0.000164414194240082 -0.0001686648022123802 0 0.0001529232792397656 -0.0001641718183992381 0 4.689497414910755e-05 -0.0001797827478958318 0 4.450586091306145e-05 -0.0001820613380014934 0 2.276047640313214e-05 -0.0001840557607111424 0 8.593387518059089e-05 -0.0001720787570277491 0 6.372234433604295e-05 -0.0001792282935414281 0 8.470242855074176e-05 -0.0001750756893353158 0 0.0001309844994201486 -0.0001600860528587257 0 0.0001295530267935438 -0.0001644189586103827 0 0.0001068863711515075 -0.0001700025546856059 0 0.0002525028449992099 -0.0001768204351084132 0 0.0002416677431634868 -0.0001728855493932527 0 0.0002264102189553231 -0.0001813650485569938 0 0.0002181429189259946 -0.0001670504536152436 0 0.0001911183397198987 -0.0001624034400801571 0 0.0001768308702184925 -0.0001479344829118293 0 0.0001522379881756611 -0.0001589038408095011 0 0.0001764602205934649 -0.0001540859684068035 0 0 -0.0001828374577588626 0 2.421057654187514e-05 -0.0001823281316730976 0 0 -0.0001843600722337816 0 6.664907514940671e-05 -0.0001762348602195798 0 0.0001085325678403708 -0.000166173923766493 0 0.0001539611833401563 -0.0001538192374844132 0 0.0002834609700386291 -0.0001584541950872024 0 0.0002571408184092118 -0.0001636901648063262 0 0.0002676916258331994 -0.0001678399540483664 0 0.0002618235408562015 -0.0001488504263134988 0 0.0002334397332939461 -0.0001570517519001738 0 0.0002459400256941761 -0.000159282275296248 0 0.0002271717874253465 -0.0001485820232652764 0 0.0002159346389469331 -0.0001571587085792048 0 0.0002020595135516602 -0.0001541755549057981 0 0.0002217411574327027 -0.0001385736127667164 0 0.0001993687840272206 -0.0001429105996469535 0 0.0001988125157250891 -0.0001497170091318349 0 5.259990598084728e-05 -0.0001754773476262657 0 2.500374764692369e-05 -0.0001806654648851323 0 4.897840650696158e-05 -0.000177776908583333 0 9.15632713810318e-05 -0.0001658516065394475 0 6.819835334160848e-05 -0.0001739023947132412 0 8.790927626585877e-05 -0.0001689946957428213 0 0.0001329470522442187 -0.0001520746418400067 0 0.0001084133374017849 -0.0001630901733745727 0 0.0001312551089807298 -0.0001560696807085062 0 0.0001793734705021216 -0.0001362926681204231 0 0.0001774191921130466 -0.0001421925448320181 0 0.0001542910238704461 -0.0001489242834312241 0 0.0003049152145054769 -0.0001682071388361992 0 0.0002941213178492739 -0.0001632818754752451 0 0.0002786867314781952 -0.0001724108076589584 0 0.0002725421132434085 -0.0001535791528418431 0 0.0002445337621468106 -0.0001484943655119926 0 0.0002242254311614681 -0.0001435980709114129 0 0.0002258014145659264 -0.0001237680934673112 0 0.0002006889342221201 -0.0001362230816594829 0 0.0002231405233887151 -0.0001313276730098887 0 0 -0.0001778776637381508 0 2.829831023881864e-05 -0.000178120604162877 0 0 -0.0001808957459403174 0 7.263902235039572e-05 -0.0001711367941354214 0 0.0001124856069410319 -0.0001590172260578842 0 0.0001562995127203184 -0.0001439048430439149 0 0.0002027321506148916 -0.0001295181924721 0 0.0003403209616224776 -0.000146494523162214 0 0.0003118837240231696 -0.0001523004314809592 0 0.00032226255314748 -0.0001575280485648854 0 0.0003105843519936679 -0.0001416955703685878 0 0.0002862737467015454 -0.0001450319604187842 0 0.0002967810193628626 -0.000150192798092112 0 0.0002677114915441861 -0.0001314995245435702 0 0.0002643314969181515 -0.0001403603625324438 0 0.0002472228189182287 -0.0001401124317797151 0 0.0002448349411972064 -0.0001346684923674173 0 0.0002712129703436052 -0.0001153185385459533 0 0.0002486552526964054 -0.0001190528453819332 0 0.0002460387636764883 -0.0001270669438168769 0 7.337567666336249e-05 -0.0001672879845853007 0 3.491697225043863e-05 -0.0001743789312121525 0 6.093362655512469e-05 -0.0001721543025586282 0 0.0001027385582208285 -0.0001604024992748029 0 7.648407325663113e-05 -0.0001689893091883828 0 9.582610439723428e-05 -0.0001632831099181211 0 0.0001427748504299294 -0.0001443456077690876 0 0.0001157913435383363 -0.0001560904842355531 0 0.0001363768276439286 -0.0001482082574499881 0 0.0001896023304333222 -0.0001240751407250969 0 0.0001601061848539538 -0.0001389071093432141 0 0.0001832829648216741 -0.0001302880860255354 0 0.0002353671986852585 -0.0001081745325667745 0 0.0002295904777924831 -0.0001161452702441163 0 0.0002066448599379569 -0.0001225562711327528 0 0.0003573318149321664 -0.0001606052249920003 0 0.0003486677484724114 -0.0001535751639963685 0 0.0003311436880236221 -0.0001642607649092699 0 0.0003254465313567171 -0.000143989384325921 0 0.0003117645427896408 -0.0001267892965113471 0 0.0003108859520956637 -0.0001343455686998476 0 0.000286434235134878 -0.0001378996704093334 0 0.0002898416403434562 -0.0001288526746024955 0 0.0002689245639265871 -0.0001235677132233574 0 0.0002799449333192474 -9.779552123252362e-05 0 0.0002524260480793345 -0.0001107860965950783 0 0.0002747589069126571 -0.0001067401065498316 0 0 -0.0001574593917658118 0 4.456794911879895e-05 -0.0001666920713251796 0 0 -0.0001708526029418148 0 8.894713471667494e-05 -0.0001646911938163638 0 0.0001232025799673084 -0.0001526083636246213 0 0.0001664615692038438 -0.0001338308489790476 0 0.0002126776800008548 -0.0001154156272534726 0 0.0002578365125440594 -0.0001023247814030142 0 0.0003913731367141416 -0.0001428220768765398 0 0.0003659375124592642 -0.0001444449595590169 0 0.0003741600513048927 -0.0001517576981858277 0 0.0003507285450164817 -0.0001267277048149678 0 0.0003305547307533144 -0.000134160066966555 0 0.0003451408754113433 -0.0001367651800439673 0 0.0003313106281710652 -0.0001265570209399365 0 0.0003164420478571188 -0.0001100583869208197 0 0.000313658634667486 -0.0001185615179007375 0 0.0002917973884287154 -0.0001207440222593502 0 0.000293972686844409 -0.0001122835318180302 0 0.000323066123572503 -9.230456266123797e-05 0 0.0003016559409308733 -9.455413808741862e-05 0 0.00029690239256315 -0.0001036507383377592 0 0.000121941569827469 -0.0001519242441633643 0 9.213034066160988e-05 -0.0001610675516464569 0 6.151239489961098e-05 -0.0001556309554399862 0 0.0001542369385484504 -0.0001436234838655115 0 0.0001259912264549546 -0.0001526035898927013 0 0.0001141093933460617 -0.000157383463124095 0 0.0001457280897650396 -0.00014371717952214 0 0.0002093153140002847 -0.0001132919932436362 0 0.0001748041193941233 -0.0001296200897760809 0 0.0001973539123933333 -0.0001186062393607324 0 0.0002543218030849143 -9.187486015420561e-05 0 0.000221314056626615 -0.0001081459271587523 0 0.0002433064842911137 -0.0001001378649317099 0 0.0002950111091866289 -7.979375420506265e-05 0 0.000286334808187976 -8.893297075531018e-05 0 0.0002648795690842633 -9.377562939079826e-05 0 0.0004094547038449055 -0.0001542270886297069 0 0.0004003171007861438 -0.0001485358716036602 0 0.0003834449263823391 -0.0001572587610814163 0 0.0003883361811676018 -0.0001278311843589753 0 0.0003641658594728313 -0.0001371056468715201 0 0.0003896400021978225 -0.0001353978481620933 0 0.0003695843251666168 -0.0001271379184997665 0 0.000360406367573041 -0.0001087987549385599 0 0.0003359920305950719 -0.000117638846028554 0 0.0003551872170355483 -0.000117877314520313 0 0.000338529498305603 -0.0001091265312543727 0 0.0003191143577202117 -0.0001013254794282301 0 0.000335304915115444 -7.370839125562675e-05 0 0.0003075496969092944 -8.538887527147203e-05 0 0.0003283214982202093 -8.311946991670977e-05 0 0.0001401399966173844 -0.0001512247195773988 0 0.0001826388116683821 -0.0001286471814391892 0 0.000231978416299758 -0.0001015732370231645 0 0.0002747789287041482 -8.496703731911838e-05 0 0.0003152661042919471 -7.613141204712329e-05 0 0.0004391829993859011 -0.0001385772981319164 0 0.0004153574224422697 -0.0001405408140682963 0 0.0004241962852060406 -0.0001464048888234485 0 0.0004260013987440254 -0.0001289827680588559 0 0.0004072175964207858 -0.0001282966101386139 0 0.0004086116219667574 -0.000135859663216476 0 0.0004012641137859379 -0.0001104050755553305 0 0.0003945130590846679 -0.000119189083351522 0 0.0003759820188873354 -0.000118370800047262 0 0.0003808899447906296 -0.0001094161253545337 0 0.0003674862529866726 -9.008274279642681e-05 0 0.000363409931607778 -9.955227838585912e-05 0 0.0003419055578891456 -9.9813487795891e-05 0 0.0003454067981733318 -9.081699433012376e-05 0 0.0003754215780928059 -7.15511401863761e-05 0 0.0003492952745868593 -8.153709446303081e-05 0 0.0003554508064486834 -7.222956277618345e-05 0 0.0002355833331025691 -0.0001363873875467125 0 0.0001870912794773019 -0.0001385319587152421 0 0.0001801104154899966 -0.0001447930557514205 0 0.0002514944901980633 -0.0001055392460674094 0 0.0002267386769683493 -0.0001086835217634717 0 0.0002032341204100827 -0.0001258094011209792 0 0.0002881525846175457 -7.599009169293551e-05 0 0.0002486860265766655 -9.462741218616378e-05 0 0.0002688999970778439 -8.373804517949688e-05 0 0.0003203178423215572 -6.155413435708958e-05 0 0.0003061526357825233 -7.066098209914503e-05 0 0.0002874435559549566 -7.618675101100166e-05 0 0.0003545096513064688 -5.505181817846424e-05 0 0.0003438426295460288 -6.438351807593206e-05 0 0.0003250364912906575 -6.677580762732738e-05 0 0.0004610829548348862 -0.0001490846230082687 0 0.0004500571137041919 -0.0001438350031893645 0 0.0004353392858684393 -0.0001515061452392847 0 0.0004325098695328789 -0.0001337969641132102 0 0.0004377160944018701 -0.0001146258328381169 0 0.0004316970461360863 -0.0001218350476355839 0 0.0004130715415187722 -0.0001210415949063335 0 0.0004194944010846638 -0.0001124208026457909 0 0.0004165069724075941 -8.897218362450754e-05 0 0.0004083861280259726 -9.975337854593195e-05 0 0.0003884941472264472 -9.854106650584702e-05 0 0.0003921513212944689 -8.921508560374258e-05 0 0.0003707668987745711 -8.089532307033417e-05 0 0.0003898727910879604 -5.333802800443553e-05 0 0.000381889764645113 -6.242765323295276e-05 0 0.0003629224750660607 -6.292491386307303e-05 0 0.0002423202605615885 -0.0001214725830074507 0 0.0002694210435134702 -8.932252223224419e-05 0 0.0003039640482879027 -6.751341377689076e-05 0 0.0003373313626901999 -5.752726381884968e-05 0 0.0003721479144979363 -5.374584100133831e-05 0 0.0004802534275510213 -0.000134953240924303 0 0.0004597805388322871 -0.0001366590635945212 0 0.0004705677792829555 -0.0001420252578858152 0 0.0004740436522391253 -0.0001221788128308262 0 0.0004501184823311004 -0.0001254188269358854 0 0.0004565172247627042 -0.0001303224826121853 0 0.0004558308014321168 -0.0001183530270178033 0 0.0004535758758955525 -9.705839901026395e-05 0 0.0004454028302092677 -0.0001058502647261574 0 0.0004275588187554147 -0.0001034581566862609 0 0.0004349071092520322 -9.294700431927954e-05 0 0.000414927761398516 -7.155542706737752e-05 0 0.0004151551540614281 -8.032303785020903e-05 0 0.000391267990701122 -8.049399772172359e-05 0 0.0003952442169294566 -7.13087115356772e-05 0 0.0004251756771253935 -5.403001207905208e-05 0 0.0004075036645122785 -5.344391091463309e-05 0 0.0004006021324287517 -6.230454994546692e-05 0 0.0003333546245574511 -0.0001113801804645078 0 0.0002873248560681922 -0.0001051936674257207 0 0.0002866442009906846 -0.0001243114306164977 0 0.000350499011966834 -6.153361071804702e-05 0 0.0003166712547588393 -6.775862521004358e-05 0 0.0003035632307143794 -8.37473164154644e-05 0 0.0003583211549044844 -4.475044753711758e-05 0 0.0003378545123852847 -5.282077185039754e-05 0 0.0003244740705453582 -5.936216270754112e-05 0 0.0003820368798492829 -3.753944172181313e-05 0 0.0003521073682518787 -4.856255529367872e-05 0 0.0003671846289285407 -4.60829