<?xml version="1.0"?>
<VTKFile type="UnstructuredGrid" version="2.2">
  <UnstructuredGrid>
    <Piece NumberOfPoints="750" NumberOfCells="250">
      <Points>
        <DataArray type="Float64" NumberOfComponents="3" format="ascii">0.100000000000416 1 0 -1.064075955782027e-17 0.9999999999999998 0 0.07242270094929615 0.9287161546587116 0 -6.099109172739477e-18 1 0 -1.011093273645573e-17 0.9042857142860052 0 0.07242270094929615 0.9287161546587116 0 0.1504496488130522 0.920529655141281 0 0.100000000000416 0.9999999999999998 0 0.07242270094929612 0.9287161546587116 0 -2.001852325829878e-18 0.9042857142860056 0 0.08949214017397381 0.8499193320747831 0 0.07242270094929615 0.9287161546587116 0 0.2000000000008322 1 0 0.100000000000416 0.9999999999999998 0 0.1504496488130522 0.9205296551412806 0 0.08949214017397382 0.8499193320747834 0 0.1504496488130522 0.9205296551412808 0 0.07242270094929612 0.9287161546587116 0 -7.536619400667012e-18 0.9042857142860056 0 -1.249399701861451e-17 0.8085714285720077 0 0.08949214017397379 0.8499193320747829 0 0.2000000000008322 1 0 0.1504496488130521 0.9205296551412809 0 0.2499721953899354 0.9185928771799154 0 0.1985034546041365 0.8442209309262435 0 0.1504496488130522 0.9205296551412808 0 0.08949214017397376 0.8499193320747829 0 -3.882225198495419e-18 0.808571428572008 0 0.07981914983884167 0.7551853746230648 0 0.08949214017397379 0.8499193320747829 0 0.3000000000012484 1 0 0.2000000000008322 0.9999999999999998 0 0.2499721953899354 0.9185928771799154 0 0.2499721953899356 0.918592877179916 0 0.1504496488130522 0.9205296551412808 0 0.1985034546041364 0.844220930926243 0 0.1985034546041365 0.8442209309262436 0 0.08949214017397378 0.8499193320747832 0 0.1647172437488297 0.7772037251192004 0 -6.722004324074814e-18 0.8085714285720081 0 -1.114355091046149e-17 0.7128571428580414 0 0.07981914983884165 0.7551853746230646 0 0.08949214017397381 0.8499193320747835 0 0.07981914983884164 0.7551853746230649 0 0.1647172437488297 0.7772037251192004 0 0.3498228780409012 0.9196059643157829 0 0.3000000000012483 0.9999999999999998 0 0.2499721953899354 0.9185928771799154 0 0.2499721953899355 0.918592877179916 0 0.1985034546041364 0.8442209309262432 0 0.2982782210027111 0.8494663949677285 0 0.1985034546041365 0.8442209309262436 0 0.1647172437488297 0.7772037251192008 0 0.2569918719072125 0.7888812511490496 0 0.07981914983884168 0.7551853746230651 0 -1.149125912433027e-17 0.7128571428580414 0 0.07928054189815227 0.6639934880868404 0 0.07981914983884167 0.7551853746230651 0 0.1576018681684929 0.6958879033414607 0 0.1647172437488297 0.7772037251192004 0 0.4000000000016645 1 0 0.3000000000012483 0.9999999999999998 0 0.349822878040901 0.9196059643157823 0 0.3498228780409012 0.9196059643157829 0 0.2499721953899355 0.9185928771799157 0 0.2982782210027111 0.8494663949677285 0 0.2982782210027112 0.8494663949677291 0 0.1985034546041365 0.8442209309262433 0 0.2569918719072125 0.7888812511490496 0 0.1647172437488297 0.777203725119201 0 0.2419461962682327 0.7223495853541092 0 0.2569918719072125 0.7888812511490496 0 -6.676645222736288e-18 0.7128571428580416 0 -1.10683558599007e-17 0.6171428571437528 0 0.07928054189815227 0.6639934880868407 0 0.07981914983884167 0.7551853746230651 0 0.07928054189815226 0.6639934880868407 0 0.1576018681684929 0.6958879033414604 0 0.1576018681684929 0.6958879033414609 0 0.2419461962682328 0.7223495853541092 0 0.1647172437488296 0.7772037251192004 0 0.4000000000016644 1 0 0.349822878040901 0.9196059643157826 0 0.4518775995084197 0.9201756490083459 0 0.3498228780409012 0.9196059643157829 0 0.2982782210027111 0.8494663949677287 0 0.3974942312260538 0.8548415168737085 0 0.334473259867368 0.7636851317483531 0 0.2982782210027111 0.8494663949677288 0 0.2569918719072125 0.7888812511490496 0 0.2419461962682328 0.7223495853541094 0 0.3344732598673679 0.7636851317483527 0 0.2569918719072125 0.7888812511490496 0 -3.037839351284387e-18 0.6171428571437531 0 0.07947867006665031 0.5692879274259948 0 0.07928054189815227 0.6639934880868407 0 0.1576018681684929 0.6958879033414609 0 0.07928054189815227 0.6639934880868407 0 0.1512795608247463 0.6093594627734517 0 0.1576018681684929 0.6958879033414609 0 0.2341354436318248 0.6391200624061723 0 0.2419461962682327 0.7223495853541091 0 0.5000000000020588 1 0 0.4000000000016644 0.9999999999999998 0 0.4518775995084197 0.9201756490083459 0 0.45187759950842 0.9201756490083465 0 0.3498228780409011 0.9196059643157826 0 0.3974942312260537 0.8548415168737085 0 0.2982782210027112 0.849466394967729 0 0.3344732598673679 0.7636851317483526 0 0.3974942312260538 0.8548415168737085 0 0.3187788313139661 0.6664952828410463 0 0.3344732598673679 0.7636851317483527 0 0.2419461962682327 0.722349585354109 0 -6.693330672381564e-18 0.6171428571437531 0 -1.109601653201901e-17 0.5214285714291633 0 0.0794786700666503 0.5692879274259948 0 0.07928054189815228 0.6639934880868409 0 0.07947867006665028 0.5692879274259948 0 0.1512795608247463 0.6093594627734519 0 0.2341354436318249 0.6391200624061725 0 0.1576018681684929 0.6958879033414607 0 0.1512795608247462 0.6093594627734517 0 0.2341354436318248 0.6391200624061725 0 0.3187788313139659 0.6664952828410461 0 0.2419461962682327 0.7223495853541092 0 0.5501260307078504 0.9157080124274183 0 0.5000000000020586 0.9999999999999998 0 0.4518775995084197 0.9201756490083459 0 0.4982783550718214 0.8283290710729981 0 0.4518775995084198 0.9201756490083461 0 0.3974942312260537 0.8548415168737085 0 0.3344732598673681 0.763685131748353 0 0.4270018182274791 0.7748455103032577 0 0.3974942312260537 0.8548415168737085 0 0.4034544631785332 0.6976365327000739 0 0.3344732598673679 0.7636851317483527 0 0.3187788313139658 0.6664952828410459 0 0.07947867006665033 0.569287927425995 0 -1.09471611924726e-17 0.5214285714291633 0 0.07539619258341244 0.4768398233222963 0 0.1512795608247463 0.6093594627734521 0 0.0794786700666503 0.5692879274259948 0 0.1430235002041239 0.5157881957117131 0 0.2175071670521009 0.5477913784569417 0 0.2341354436318248 0.6391200624061723 0 0.1512795608247462 0.6093594627734519 0 0.2341354436318248 0.6391200624061725 0 0.3009805024027953 0.5741244054537947 0 0.3187788313139659 0.6664952828410461 0 0.600000000001387 1 0 0.5000000000020586 0.9999999999999998 0 0.5501260307078502 0.9157080124274177 0 0.5501260307078504 0.9157080124274183 0 0.4518775995084198 0.9201756490083461 0 0.4982783550718211 0.8283290710729976 0 0.4270018182274793 0.774845510303258 0 0.4982783550718212 0.8283290710729978 0 0.3974942312260537 0.8548415168737085 0 0.4034544631785333 0.6976365327000739 0 0.4270018182274791 0.7748455103032578 0 0.3344732598673678 0.7636851317483524 0 0.3874961043363945 0.6045058593620659 0 0.4034544631785331 0.6976365327000736 0 0.3187788313139658 0.6664952828410461 0 -6.349523060415383e-18 0.5214285714291635 0 -1.052606188119741e-17 0.4257142857145926 0 0.07539619258341244 0.4768398233222963 0 0.07947867006665031 0.569287927425995 0 0.07539619258341243 0.4768398233222965 0 0.1430235002041239 0.5157881957117131 0 0.2175071670521008 0.5477913784569417 0 0.1512795608247463 0.6093594627734519 0 0.1430235002041238 0.5157881957117131 0 0.2175071670521008 0.5477913784569417 0 0.3009805024027954 0.5741244054537947 0 0.2341354436318247 0.6391200624061723 0 0.3009805024027954 0.574124405453795 0 0.3874961043363944 0.6045058593620657 0 0.3187788313139658 0.6664952828410461 0 0.600000000001387 1 0 0.5501260307078502 0.915708012427418 0 0.6547996067305861 0.9007657125087722 0 0.5501260307078504 0.9157080124274183 0 0.4982783550718212 0.8283290710729978 0 0.5904037090299777 0.8429143001748768 0 0.4270018182274792 0.774845510303258 0 0.4913158036241167 0.7286208351528233 0 0.4982783550718211 0.8283290710729976 0 0.4034544631785332 0.6976365327000739 0 0.4913158036241167 0.7286208351528234 0 0.427001818227479 0.7748455103032574 0 0.4745187976266662 0.6356120108154576 0 0.4034544631785331 0.6976365327000736 0 0.3874961043363942 0.6045058593620656 0 0.07539619258341247 0.4768398233222966 0 -1.159317591064528e-17 0.4257142857145926 0 0.08017840599731758 0.3963300372632156 0 0.1430235002041239 0.5157881957117133 0 0.07539619258341244 0.4768398233222965 0 0.1336105784902603 0.4361702689152493 0 0.2005261160939737 0.4579553459022219 0 0.2175071670521008 0.5477913784569415 0 0.1430235002041238 0.5157881957117131 0 0.2845914509445012 0.4848763822704991 0 0.3009805024027953 0.5741244054537947 0 0.2175071670521007 0.5477913784569415 0 0.3009805024027954 0.574124405453795 0 0.3706525465932459 0.5134749221234857 0 0.3874961043363942 0.6045058593620657 0 0.7000000000006935 1 0 0.6000000000013868 0.9999999999999998 0 0.6547996067305861 0.9007657125087722 0 0.6547996067305863 0.9007657125087728 0 0.5501260307078502 0.915708012427418 0 0.5904037090299777 0.8429143001748768 0 0.4982783550718213 0.8283290710729981 0 0.5766230053207845 0.7565871944151588 0 0.5904037090299777 0.8429143001748768 0 0.4982783550718213 0.8283290710729982 0 0.4913158036241167 0.7286208351528234 0 0.5766230053207845 0.7565871944151585 0 0.4745187976266662 0.6356120108154576 0 0.4913158036241167 0.7286208351528234 0 0.403454463178533 0.6976365327000734 0 0.4575639698313758 0.5427700263992948 0 0.474518797626666 0.6356120108154574 0 0.3874961043363942 0.6045058593620657 0 -6.752259237283005e-18 0.4257142857145928 0 -1.119370666005236e-17 0.33 0 0.08017840599731758 0.3963300372632156 0 0.07539619258341246 0.4768398233222966 0 0.08017840599731757 0.3963300372632157 0 0.1336105784902603 0.4361702689152493 0 0.2005261160939736 0.4579553459022219 0 0.1430235002041239 0.5157881957117132 0 0.1336105784902603 0.4361702689152493 0 0.2845914509445012 0.4848763822704991 0 0.2175071670521008 0.5477913784569415 0 0.2005261160939735 0.4579553459022217 0 0.2845914509445012 0.4848763822704991 0 0.3706525465932459 0.5134749221234857 0 0.3009805024027953 0.5741244054537947 0 0.3706525465932461 0.5134749221234859 0 0.4575639698313756 0.5427700263992946 0 0.3874961043363942 0.6045058593620657 0 0.7543567317552735 0.9205245603072644 0 0
[...]
      <CellData>
        <DataArray type="UInt8" Name="vtkGhostType" format="ascii" RangeMin="0" RangeMax="1">0 0 0 0 0 0 0 0 0 0 0 0 0 0 0 0 0 0 0 0 0 0 0 0 0 0 0 0 0 0 0 0 0 0 0 0 0 0 0 0 0 0 0 0 0 0 0 0 0 0 0 0 0 0 0 0 0 0 0 0 0 0 0 0 0 0 0 0 0 0 0 0 0 0 0 0 0 0 0 0 0 0 0 0 0 0 0 0 0 0 0 0 0 0 0 0 0 0 0 0 0 0 0 0 0 0 0 0 0 0 0 0 0 0 0 0 0 0 0 0 0 0 0 0 0 0 0 0 0 0 0 0 0 0 0 0 0 0 0 0 0 0 0 0 0 0 0 0 0 0 0 0 0 0 0 0 0 0 0 0 0 0 0 0 0 0 0 0 0 0 0 0 0 0 0 0 0 0 0 0 0 0 0 0 0 0 0 0 0 0 0 0 0 0 0 0 0 0 0 0 0 0 0 0 0 0 0 0 0 0 0 0 0 0 0 0 0 0 0 0 0 0 0 0 0 0 0 0 0 0 0 0 0 0 0 0 0 0 0 0 0 0 0 0 0 0 0 0 0 0 </DataArray>
        <DataArray type="Int64" IdType="1" Name="vtkOriginalCellIds" format="ascii" RangeMin="0" RangeMax="249">0 1 2 3 4 5 6 7 8 9 10 11 12 13 14 15 16 17 18 19 20 21 22 23 24 25 26 27 28 29 30 31 32 33 34 35 36 37 38 39 40 41 42 43 44 45 46 47 48 49 50 51 52 53 54 55 56 57 58 59 60 61 62 63 64 65 66 67 68 69 70 71 72 73 74 75 76 77 78 79 80 81 82 83 84 85 86 87 88 89 90 91 92 93 94 95 96 97 98 99 100 101 102 103 104 105 106 107 108 109 110 111 112 113 114 115 116 117 118 119 120 121 122 123 124 125 126 127 128 129 130 131 132 133 134 135 136 137 138 139 140 141 142 143 144 145 146 147 148 149 150 151 152 153 154 155 156 157 158 159 160 161 162 163 164 165 166 167 168 169 170 171 172 173 174 175 176 177 178 179 180 181 182 183 184 185 186 187 188 189 190 191 192 193 194 195 196 197 198 199 200 201 202 203 204 205 206 207 208 209 210 211 212 213 214 215 216 217 218 219 220 221 222 223 224 225 226 227 228 229 230 231 232 233 234 235 236 237 238 239 240 241 242 243 244 245 246 247 248 249 </DataArray>
      </CellData>
      <PointData Tensors="stress" Vectors="von_mises_stress">
        <DataArray type="Int64" IdType="1" Name="vtkOriginalPointIds" format="ascii" RangeMin="0" RangeMax="749">0 1 2 3 4 5 6 7 8 9 10 11 12 13 14 15 16 17 18 19 20 21 22 23 24 25 26 27 28 29 30 31 32 33 34 35 36 37 38 39 40 41 42 43 44 45 46 47 48 49 50 51 52 53 54 55 56 57 58 59 60 61 62 63 64 65 66 67 68 69 70 71 72 73 74 75 76 77 78 79 80 81 82 83 84 85 86 87 88 89 90 91 92 93 94 95 96 97 98 99 100 101 102 103 104 105 106 107 108 109 110 111 112 113 114 115 116 117 118 119 120 121 122 123 124 125 126 127 128 129 130 131 132 133 134 135 136 137 138 139 140 141 142 143 144 145 146 147 148 149 150 151 152 153 154 155 156 157 158 159 160 161 162 163 164 165 166 167 168 169 170 171 172 173 174 175 176 177 178 179 180 181 182 183 184 185 186 187 188 189 190 191 192 193 194 195 196 197 198 199 200 201 202 203 204 205 206 207 208 209 210 211 212 213 214 215 216 217 218 219 220 221 222 223 224 225 226 227 228 229 230 231 232 233 234 235 236 237 238 239 240 241 242 243 244 245 246 247 248 249 250 251 252 253 254 255 256 257 258 259 260 261 262 263 264 265 266 267 268 269 270 271 272 273 274 275 276 277 278 279 280 281 282 283 284 285 286 287 288 289 290 291 292 293 294 295 296 297 298 299 300 301 302 303 304 305 306 307 308 309 310 311 312 313 314 315 316 317 318 319 320 321 322 323 324 325 326 327 328 329 330 331 332 333 334 335 336 337 338 339 340 341 342 343 344 345 346 347 348 349 350 351 352 353 354 355 356 357 358 359 360 361 362 363 364 365 366 367 368 369 370 371 372 373 374 375 376 377 378 379 380 381 382 383 384 385 386 387 388 389 390 391 392 393 394 395 396 397 398 399 400 401 402 403 404 405 406 407 408 409 410 411 412 413 414 415 416 417 418 419 420 421 422 423 424 425 426 427 428 429 430 431 432 433 434 435 436 437 438 439 440 441 442 443 444 445 446 447 448 449 450 451 452 453 454 455 456 457 458 459 460 461 462 463 464 465 466 467 468 469 470 471 472 473 474 475 476 477 478 479 480 481 482 483 484 485 486 487 488 489 490 491 492 493 494 495 496 497 498 499 500 501 502 503 504 505 506 507 508 509 510 511 512 513 514 515 516 517 518 519 520 521 522 523 524 525 526 527 528 529 530 531 532 533 534 535 536 537 538 539 540 541 542 543 544 545 546 547 548 549 550 551 552 553 554 555 556 557 558 559 560 561 562 563 564 565 566 567 568 569 570 571 572 573 574 575 576 577 578 579 580 581 582 583 584 585 586 587 588 589 590 591 592 593 594 595 596 597 598 599 600 601 602 603 604 605 606 607 608 609 610 611 612 613 614 615 616 617 618 619 620 621 622 623 624 625 626 627 628 629 630 631 632 633 634 635 636 637 638 639 640 641 642 643 644 645 646 647 648 649 650 651 652 653 654 655 656 657 658 659 660 661 662 663 664 665 666 667 668 669 670 671 672 673 674 675 676 677 678 679 680 681 682 683 684 685 686 687 688 689 690 691 692 693 694 695 696 697 698 699 700 701 702 703 704 705 706 707 708 709 710 711 712 713 714 715 716 717 718 719 720 721 722 723 724 725 726 727 728 729 730 731 732 733 734 735 736 737 738 739 740 741 742 743 744 745 746 747 748 749 </DataArray>
        <DataArray type="UInt8" Name="vtkGhostType" format="ascii" RangeMin="0" RangeMax="0">0 0 0 0 0 0 0 0 0 0 0 0 0 0 0 0 0 0 0 0 0 0 0 0 0 0 0 0 0 0 0 0 0 0 0 0 0 0 0 0 0 0 0 0 0 0 0 0 0 0 0 0 0 0 0 0 0 0 0 0 0 0 0 0 0 0 0 0 0 0 0 0 0 0 0 0 0 0 0 0 0 0 0 0 0 0 0 0 0 0 0 0 0 0 0 0 0 0 0 0 0 0 0 0 0 0 0 0 0 0 0 0 0 0 0 0 0 0 0 0 0 0 0 0 0 0 0 0 0 0 0 0 0 0 0 0 0 0 0 0 0 0 0 0 0 0 0 0 0 0 0 0 0 0 0 0 0 0 0 0 0 0 0 0 0 0 0 0 0 0 0 0 0 0 0 0 0 0 0 0 0 0 0 0 0 0 0 0 0 0 0 0 0 0 0 0 0 0 0 0 0 0 0 0 0 0 0 0 0 0 0 0 0 0 0 0 0 0 0 0 0 0 0 0 0 0 0 0 0 0 0 0 0 0 0 0 0 0 0 0 0 0 0 0 0 0 0 0 0 0 0 0 0 0 0 0 0 0 0 0 0 0 0 0 0 0 0 0 0 0 0 0 0 0 0 0 0 0 0 0 0 0 0 0 0 0 0 0 0 0 0 0 0 0 0 0 0 0 0 0 0 0 0 0 0 0 0 0 0 0 0 0 0 0 0 0 0 0 0 0 0 0 0 0 0 0 0 0 0 0 0 0 0 0 0 0 0 0 0 0 0 0 0 0 0 0 0 0 0 0 0 0 0 0 0 0 0 0 0 0 0 0 0 0 0 0 0 0 0 0 0 0 0 0 0 0 0 0 0 0 0 0 0 0 0 0 0 0 0 0 0 0 0 0 0 0 0 0 0 0 0 0 0 0 0 0 0 0 0 0 0 0 0 0 0 0 0 0 0 0 0 0 0 0 0 0 0 0 0 0 0 0 0 0 0 0 0 0 0 0 0 0 0 0 0 0 0 0 0 0 0 0 0 0 0 0 0 0 0 0 0 0 0 0 0 0 0 0 0 0 0 0 0 0 0 0 0 0 0 0 0 0 0 0 0 0 0 0 0 0 0 0 0 0 0 0 0 0 0 0 0 0 0 0 0 0 0 0 0 0 0 0 0 0 0 0 0 0 0 0 0 0 0 0 0 0 0 0 0 0 0 0 0 0 0 0 0 0 0 0 0 0 0 0 0 0 0 0 0 0 0 0 0 0 0 0 0 0 0 0 0 0 0 0 0 0 0 0 0 0 0 0 0 0 0 0 0 0 0 0 0 0 0 0 0 0 0 0 0 0 0 0 0 0 0 0 0 0 0 0 0 0 0 0 0 0 0 0 0 0 0 0 0 0 0 0 0 0 0 0 0 0 0 0 0 0 0 0 0 0 0 0 0 0 0 0 0 0 0 0 0 0 0 0 0 0 0 0 0 0 0 0 0 0 0 0 0 0 0 0 0 0 0 0 0 0 0 0 0 0 0 0 0 0 0 0 0 0 0 0 0 0 0 0 0 0 0 0 0 0 0 0 0 0 0 0 0 0 0 0 0 0 0 0 0 0 0 0 0 0 0 0 0 0 0 0 0 0 0 0 0 0 0 0 0 0 0 0 0 0 0 0 0 0 0 0 0 0 0 0 0 0 0 0 0 0 0 0 0 0 </DataArray>
        <DataArray type="Float64" Name="stress" format="ascii" NumberOfComponents="9">107415322.5801702 2468890.800147762 2468890.800147762 13560184.03169168 0 0 0 0 0 107218771.3658126 25167.41226022152 25167.41226022152 14861979.32835245 0 0 0 0 0 108753774.6021406 2087537.517562766 2087537.517562766 15904369.94628126 0 0 0 0 0 107080898.5822303 -114863.2219182751 -114863.2219182751 14472394.92996981 0 0 0 0 0 109213954.0814084 27385.37276764527 27385.37276764527 17172541.8193331 0 0 0 0 0 108857246.9240621 2209112.926547145 2209112.926547145 16259823.36847315 0 0 0 0 0 109671126.1808521 4186840.81448249 4186840.81448249 14251825.05265047 0 0 0 0 0 107377509.1764117 2397310.50665885 2397310.50665885 13629615.99401747 0 0 0 0 0 108890416.6072185 2204358.597786239 2204358.597786239 15802849.04567084 0 0 0 0 0 109359309.9488069 4048.251178503726 4048.251178503726 17816584.53521243 0 0 0 0 0 111083935.1066574 3093509.94793747 3093509.94793747 17815898.66877428 0 0 0 0 0 108787856.6939764 2198522.985228116 2198522.985228116 15850015.05377209 0 0 0 0 0 108183681.8022048 4325599.188385537 4325599.188385537 10894714.54603013 0 0 0 0 0 107529786.8370206 2526096.330027649 2526096.330027649 13853574.17747249 0 0 0 0 0 109561337.7509375 4105363.931996333 4105363.931996333 14111712.79506847 0 0 0 0 0 111134022.2399362 3255540.08132847 3255540.08132847 17921318.31799635 0 0 0 0 0 109589761.1131458 4150690.121298516 4150690.121298516 14005330.86939611 0 0 0 0 0 108902204.4210236 2178489.73788596 2178489.73788596 15867922.2179123 0 0 0 0 0 109101336.9782571 -166229.801450936 -166229.801450936 17243959.46752935 0 0 0 0 0 112273934.1115369 170699.3313789228 170699.3313789228 20694265.86938527 0 0 0 0 0 111294780.0742749 3242219.877631098 3242219.877631098 18502105.15669913 0 0 0 0 0 108145740.3196877 4232734.745506966 4232734.745506966 11068947.10957392 0 0 0 0 0 109587189.2678475 4246488.80020392 4246488.80020392 13850129.91353479 0 0 0 0 0 110829174.824406 5712855.225790136 5712855.225790136 10297429.70087763 0 0 0 0 0 112697479.536732 6038787.161886 6038787.161886 13754645.03465443 0 0 0 0 0 109516918.6512432 4140345.60303226 4140345.60303226 14077011.52785037 0 0 0 0 0 111148462.0478435 3287421.483132856 3287421.483132856 17820870.16394142 0 0 0 0 0 112487451.964306 67278.29770942884 67278.29770942884 21568033.7346487 0 0 0 0 0 115042159.5890649 3410625.562595984 3410625.562595984 21457842.13408455 0 0 0 0 0 111082529.9773628 3350833.440260544 3350833.440260544 17714136.7870326 0 0 0 0 0 109103174.5250258 5133605.744872445 5133605.744872445 7316423.58577501 0 0 0 0 0 108354728.1346155 4390474.516096514 4390474.516096514 11334690.54365652 0 0 0 0 0 110598787.8953481 5519789.501947037 5519789.501947037 9969972.595016994 0 0 0 0 0 110658186.4113891 5650975.157416025 5650975.157416025 9737262.580900744 0 0 0 0 0 109757384.6728817 4330439.108111491 4330439.108111491 14403923.57559942 0 0 0 0 0 112447487.6772998 5782142.568512648 5782142.568512648 13305099.63343044 0 0 0 0 0 112493760.9073182 5961941.401631145 5961941.401631145 13105036.67651222 0 0 0 0 0 111391567.9580305 3370773.361514683 3370773.361514683 18599893.07855495 0 0 0 0 0 114771727.7477111 5932709.774844868 5932709.774844868 16499725.28615699 0 0 0 0 0 112154557.7009545 -172607.1883752115 -172607.1883752115 20692959.6565472 0 0 0 0 0 117307425.415511 211606.4369217041 211606.4369217041 25088441.65828703 0 0 0 0 0 115321011.9546533 3629225.659042626 3629225.659042626 22399254.12709259 0 0 0 0 0 110970463.1137957 3039330.346653828 3039330.346653828 17764539.9613106 0 0 0 0 0 115206349.5637265 3755745.46008937 3755745.46008937 21413627.30312749 0 0 0 0 0 115084004.8233509 6195105.075156284 6195105.075156284 17184992.03253024 0 0 0 0 0 111641195.1133394 5720572.460737669 5720572.460737669 5567345.326101551 0 0 0 0 0 109028159.7782917 5039892.79560041 5039892.79560041 7491860.048481885 0 0 0 0 0 110703336.0852137 5649234.359739447 5649234.359739447 9727562.243502036 0 0 0 0 0 110599904.410306 5551228.671089523 5551228.671089523 9959029.330766436 0 0 0 0 0 112534342.6355217 5926431.719777258 5926431.719777258 12983768.89373779 0 0 0 0 0 113529490.0596697 6487853.661994577 6487853.661994577 7968443.535385586 0 0 0 0 0 112428893.4766001 5812089.033811569 5812089.033811569 13314452.63769797 0 0 0 0 0 115046780.3752473 6182678.775835636 6182678.775835636 16158677.81306206 0 0 0 0 0 115566463.597192 7045013.005497651 7045013.005497651 10576312.85101644 0 0 0 0 0 115007605.4954577 3825166.730703546 3825166.730703546 21504417.53313483 0 0 0 0 0 117555327.0541327 62369.71440395925 62369.71440395925 26218462.7720409 0 0 0 0 0 121383410.4863071 4073642.978101939 4073642.978101939 25452554.53297493 0 0 0 0 0 115414462.5515741 3789330.138253731 3789330.138253731 22387085.11894663 0 0 0 0 0 119498817.4439362 6644216.680020351 6644216.680020351 18723055.62111609 0 0 0 0 0 114905385.7413687 6166328.792774828 6166328.792774828 16349634.53580343 0 0 0 0 0 109792282.4370838 4878967.54879409 4878967.54879409 3615166.398818836 0 0 0 0 0 109270103.9598117 5199267.951754668 5199267.951754668 7759115.644197655 0 0 0 0 0 111377649.0565195 5529956.347101934 5529956.347101934 5245248.114785838 0 0 0 0 0 111479218.3933883 5636053.350994055 5636053.350994055 5019819.773145277 0 0 0 0 0 110873525.2076036 5741234.27051833 5741234.27051833 10303129.05107496 0 0 0 0 0 113244468.9841088 6255469.092647327 6255469.092647327 7536644.802990104 0 0 0 0 0 113336398.02966 6419120.403074134 6419120.403074134 7287748.677628913 0 0 0 0 0 112759858.9645481 6024859.03064079 6024859.03064079 13787114.71738416 0 0 0 0 0 115326238.4298965 6833363.942307252 6833363.942307252 9996779.386806028 0 0 0 0 0 115256958.0193498 6252565.644373797 6252565.644373797 16976197.54962936 0 0 0 0 0 118603542.2742852 7397742.26574434 7397742.26574434 11174203.37788429 0 0 0 0 0 115406748.7987285 6981406.378082317 6981406.378082317 9942911.565112373 0 0 0 0 0 117132702.1492736 -223931.278719238 -223931.278719238 25162665.22522694 0 0 0 0 0 125989015.502986 334012.8051621449 334012.8051621449 30514698.82834143 0 0 0 0 0 121634194.4730425 4273856.681077717 4273856.681077717 26687440.99131567 0 0 0 0 0 114976238.8173033 3480990.575469423 3480990.575469423 21500293.89334201 0 0 0 0 0 121490951.6671354 4517465.90618798 4517465.90618798 25477997.87196923 0 0 0 0 0 119793439.2485999 6887107.324041088 6887107.324041088 19570149.23525774 0 0 0 0 0 119723880.1622748 6984264.914273011 6984264.914273011 18711460.95453676 0 0 0 0 0 118768724.9422757 7525288.284559341 7525288.284559341 11640519.45417907 0 0 0 0 0 114898765.5223088 6022007.776446952 6022007.776446952 16380604.44252472 0 0 0 0 0 109685497.2493071 4816720.477504325 4816720.477504325 3740373.731691396 0 0 0 0 0 111531711.6951754 5609962.16692751 5609962.16692751 5082615.043157257 0 0 0 0 0 111859164.4229168 4517738.079086071 4517738.079086071 1125548.547357216 0 0 0 0 0 111417112.7489119 5548720.275566119 5548720.275566119 5236741.838592301 0 0 0 0 0 113368392.9934601 6359743.73994699 6359743.73994699 7263384.540297405 0 0 0 0 0 113687356.9653187 5334671.948945729 5334671.948945729 2487722.029303503 0 0 0 0 0 117065509.0785019 6455096.496642162 6455096.496642162 4713120.155082186 0 0 0 0 0 113146530.2956734 6291570.803988582 6291570.803988582 7586585.249019854 0 0 0 0 0 115539935.9301804 6891790.409926292 6891790.409926292 9835687.679387955 0 0 0 0 0 118736991.847791 7543099.256885095 7543099.256885095 11121133.4964234 0 0 0 0 0 116812313.067242 6285053.761625853 6285053.761625853 4191149.977587789 0 0 0 0 0 115591297.8608034 6904742.814244675 6904742.814244675 10035332.28396937 0 0 0 0 0 126328530.2151844 89953.95975154659 89953.95975154659 31958093.59961223 0 0 0 0 0 133016869.6437653 4253661.267927554 4253661.267927554 30095537.97889596 0 0 0 0 0 121034571.5409269 4661273.987984564 4661273.987984564 25499899.50332033 0 0 0 0 0 119497189.1880684 7041198.672218064 7041198.672218064 18687954.29413609 0 0 0 0 0 121683475.799629 4463971.586718662 4463971.586718662 26419410.32310585 0 0 0 0 0 127334038.5791998 6947182.922963602 6947182.922963602 21328605.34559877 0 0 0 0 0 119853162.3886276 6967053.598594122 6967053.598594122 19264245.24653896 0 0 0 0 0 124378128.1642817 7628860.859520959 7628860.859520959 11533655.50007909 0 0 0 0 0 118623604.4437719 7567704.862497361 7567704.862497361 11113480.70520522 0 0 0 0 0 109989955.5055087 3827505.587963756 3827505.587963756 377742.1713625718 0 0 0 0 0 109910987.327622 4940990.228174815 4940990.228174815 3949227.847841689 0 0 0 0 0 111605839.6720097 4373575.312918894 4373575.312918894 882103.5850999861 0 0 0 0 0 111738279.8278348 4438433.170480672 4438433.170480672 718724.7453164983 0 0 0 0 0 111654610.6388331 5692308.715912201 5692308.715912201 5496301.140845045 0 0 0 0 0 113425608.0481168 5175554.871193847 5175554.871193847 2199678.270478453 0 0 0 0 0 113528880.5562072 6488679.041729003 6488679.041729003 7864289.303845388 0 0 0 0 0 116675895.194729 6165812.208619739 6165812.208619739 4327651.807930926 0 0 0 0 0 113529133.5221824 5253751.985846597 5253751.985846597 1917199.325444476 0 0 0 0 0 121916483.8964803 6178659.518751825 6178659.518751825 3378068.959855229 0 0 0 0 0 116719441.9846052 6370800.835431695 6370800.835431695 4313498.925199761 0 0 0 0 0 118794598.8926483 7498058.031408827 7498058.031408827 11139470.53267083 0 0 0 0 0 125853321.1054423 -231176.507347443 -231176.507347443 30691629.8842434 0 0 0 0 0 142863367.3032891 483912.7716606448 483912.7716606448 36305368.04907739 0 0 0 0 0 132966175.1617627 4282382.211261269 4282382.211261269 31536978.12128104 0 0 0 0 0 121442312.6139293 4251096.217309233 4251096.217309233 25619989.1128594 0 0 0 0 0 132568737.4474365 4816428.768384031 4816428.768384031 29964161.17769946 0 0 0 0 0 127380542.0789172 7073063.737893029 7073063.737893029 22089595.22348244 0 0 0 0 0 124372424.3265217 7678306.079243788 7678306.079243788 11933849.20423941 0 0 0 0 0 119726050.2935749 6850725.696474756 6850725.696474756 18791741.60899005 0 0 0 0 0 127198854.0321261 7347271.058984635 7347271.058984635 21212580.23424848 0 0 0 0 0 124285303.8015755 7727096.277190859 7727096.277190859 11482521.21143986 0 0 0 0 0 121702696.9411439 6068082.874286226 6068082.874286226 3250666.718446723 0 0 0 0 0 118900156.9923117 7552130.858480563 7552130.858480563 11198034.30368473 0 0 0 0 0 111404984.6304812 2678566.80262172 2678566.80262172 -2264181.25747441 0 0 0 0 0 109881709.0771376 3799336.772027528 3799336.772027528 435004.1205481726 0 0 0 0 0 111747536.5598644 4392715.789170435 4392715.789170435 838343.0393076895 0 0 0 0 0 113857473.7276266 3027393.070426644 3027393.070426644 -2489576.406413505 0 0 0 0 0 111590186.5850562 4391999.042486117 4391999.042486117 919036.3617481391 0 0 0 0 0 113572932.8228115 5228517.423419425 5228517.423419425 1981911.419702454 0 0 0 0 0 116967096.1753653 6284661.719755725 6284661.719755725 4017759.808488149 0 0 0 0 0 115913741.2256897 4218868.010372509 4218868.010372509 -851048.5362631175 0 0 0 0 0 113396014.2385758 5156693.257083472 5156693.257083472 2148523.36267382 0 0 0 0 0 118813318.8871998 3620817.48588736 3620817.48588736 -2362439.888274855 0 0 0 0 0 117081880.4776502 6434558.173790164 6434558.173790164 4386582.323380782 0 0 0 0 0 121640807.0332595 6103452.967913655 6103452.967913655 3333783.893171483 0 0 0 0 0 131693616.9423992 5069126.18475248 5069126.18475248 29977595.82236507 0 0 0 0 0 143311327.9418213 175451.3691848587 175451.3691848587 37642440.45849292 0 0 0 0 0 155630437.8647006 1377369.041618094 1377369.041618094 34252388.45755733 0 0 0 0 0 126534394.8103134 7609381.746627934 7609381.746627934 21118480.71020881 0 0 0 0 0 132969925.9176631 4559126.521224023 4559126.521224023 30806093.33188672 0 0 0 0 0 141563883.6809603 5012213.048546975 5012213.048546975 24253974.52855987 0 0 0 0 0 133610687.42488 6147270.770967475 6147270.770967475 12533737.13506404 0 0 0 0 0 123980692.0236645 7961224.749741686 7961224.749741686 11276730.29428448 0 0 0 0 0 127360749.113841 7293722.903111436 7293722.903111436 21830299.87178044 0 0 0 0 0 124353726.9539191 7646652.410313842 7646652.410313842 11475519.17559033 0 0 0 0 0 128189092.3375981 4573415.296647537 4573415.296647537 1932147.510474543 0 0 0 0 0 121549136.1455975 6232986.968263588 6232986.968263588 3199099.417891339 0 0 0 0 0 109627369.4483641 2347450.09633104 2347450.09633104 -2086373.39405536 0 0 0 0 0 110042582.0366154 3869304.977966381 3869304.977966381 546371.917987039 0 0 0 0 0 111224570.0901008 2595968.036941008 2595968.036941008 -2396222.941721919 0 0 0 0 0 111344335.0121284 2609967.325262099 2609967.325262099 -2440400.932318637 0 0 0 0 0 111834602.2036256 4501819.379940955 4501819.379940955 1087098.879635109 0 0 0 0 0 113520694.4215011 2872989.713839881 2872989.713839881 -2725533.503262855 0 0 0 0 0 115738188.0826412 4083419.563566827 4083419.563566827 -1016482.469865735 0 0 0 0 0 113589603.6062804 2820530.029306914 2820530.029306914 -3013075.724549156 0 0 0 0 0 113799390.3791692 5393392.811757646 5393392.811757646 2454132.567775978 0 0 0 0 0 119023784.4099742 3747641.403970566 3747641.403970566 -2097931.892707273 0 0 0 0 0 115866935.5893545 4161602.183719644 4161602.183719644 -1077216.016907773 0 0 0 0 0 117006364.0477421 6381473.082968163 6381473.082968163 4261081.235042119 0 0 0 0 0 123216887.651949 1733126.810092029 1733126.810092029 -4810452.809472917 0 0 0 0 0 118716751.8875694 3758060.222046735 3758060.222046735 -2128237.496619425 0 0 0 0 0 121695872.1779513 5972573.717387586 5972573.717387586 2894821.597767727 0 0 0 0 0 143095570.4688261 21627.02992004629 21627.02992004629 36769912.50994629 0 0 0 0 0 180316775.7461572 45749