<?xml version="1.0"?>
<VTKFile type="UnstructuredGrid" version="2.2">
  <UnstructuredGrid>
    <Piece NumberOfPoints="541" NumberOfCells="250">
      <Points>
        <DataArray type="Float64" NumberOfComponents="3" format="ascii">0.100000000000416 1 0 1.560150154043339e-18 1 0 0.07242270094929615 0.9287161546587119 0 0.03621135047464808 0.9643580773293561 0 0.08621135047485609 0.9643580773293561 0 0.05000000000020802 1 0 1.927864805481964e-18 0.9042857142860055 0 0.03621135047464808 0.9165009344723587 0 0 0.9521428571430028 0 0.1504496488130522 0.9205296551412812 0 0.1114361748811742 0.9246229048999965 0 0.1252248244067341 0.9602648275706405 0 0.08949214017397381 0.8499193320747833 0 0.08095742056163498 0.8893177433667476 0 0.0447460700869869 0.8771025231803944 0 0.2000000000008322 1 0 0.1752248244069422 0.9602648275706407 0 0.1500000000006241 1 0 0.119970894493513 0.8852244936080322 0 1.719486532321706e-18 0.8085714285720079 0 0.0447460700869869 0.8292453803233957 0 0 0.8564285714290067 0 0.2499721953899355 0.918592877179916 0 0.2002109221014939 0.9195612661605985 0 0.2249860976953839 0.9592964385899579 0 0.1985034546041365 0.8442209309262435 0 0.1439977973890552 0.8470701315005135 0 0.1744765517085943 0.8823752930337623 0 0.07981914983884167 0.755185374623065 0 0.08465564500640774 0.8025523533489243 0 0.03990957491942083 0.7818784015975364 0 0.3000000000012484 1 0 0.2749860976955919 0.9592964385899579 0 0.2500000000010403 1 0 0.224237824997036 0.8814069040530798 0 0.1647172437488297 0.7772037251192008 0 0.1271046919614018 0.8135615285969922 0 0.1816103491764831 0.8107123280227222 0 1.707883688867638e-18 0.7128571428580415 0 0.03990957491942084 0.7340212587405534 0 0 0.7607142857150249 0 0.1222681967938357 0.7661945498711329 0 0.3498228780409012 0.9196059643157829 0 0.2998975367154184 0.9190994207478494 0 0.3249114390210747 0.9598029821578914 0 0.2982782210027112 0.8494663949677289 0 0.2483908378034239 0.8468436629469862 0 0.2741252081963234 0.8840296360738225 0 0.2569918719072125 0.7888812511490499 0 0.2108545578280211 0.7830424881341255 0 0.2277476632556745 0.8165510910376468 0 0.07928054189815228 0.6639934880868408 0 0.03964027094907614 0.6884253154724411 0 0.07954984586849698 0.709589431354953 0 0.1576018681684929 0.6958879033414609 0 0.1611595559586613 0.7365458142303308 0 0.1187105090036673 0.7255366389822628 0 0.4000000000016645 1 0 0.3749114390212828 0.9598029821578915 0 0.3500000000014564 1 0 0.3240505495218062 0.8845361796417559 0 0.2776350464549618 0.8191738230583895 0 0.2419461962682328 0.7223495853541092 0 0.2494690340877226 0.7556154182515797 0 0.2033317200085313 0.7497766552366552 0 1.712151821491122e-18 0.6171428571437529 0 0.03964027094907614 0.6405681726152969 0 0 0.6650000000008973 0 0.1184412050333226 0.6799406957141508 0 0.1997740322183628 0.7091187443477851 0 0.4518775995084199 0.9201756490083465 0 0.4008502387746605 0.9198908066620647 0 0.4259387997550421 0.9600878245041732 0 0.3974942312260538 0.8548415168737088 0 0.3478862261143825 0.852153955920719 0 0.3736585546334775 0.8872237405947458 0 0.3344732598673679 0.7636851317483527 0 0.2957325658872902 0.7762831914487014 0 0.3163757404350396 0.806575763358041 0 0.2882097280678004 0.7430173585512311 0 0.07947867006665031 0.5692879274259949 0 0.07937960598240131 0.6166407077564179 0 0.03973933503332516 0.593215392284874 0 0.1512795608247463 0.6093594627734521 0 0.1152800513614493 0.6366764754301464 0 0.1544407144966196 0.6526236830574563 0 0.2341354436318248 0.6391200624061723 0 0.2380408199500288 0.6807348238801408 0 0.1958686559001589 0.6675039828738166 0 0.5000000000020588 1 0 0.4759387997552393 0.9600878245041732 0 0.4500000000018616 1 0 0.4246859153672369 0.8875085829410276 0 0.3659837455467109 0.8092633243110309 0 0.3187788313139659 0.6664952828410461 0 0.2803625137910994 0.6944224340975778 0 0.326626045590667 0.7150902072946995 0 1.624205945531439e-18 0.5214285714291634 0 0.03973933503332516 0.5453582494275793 0 0 0.5692857142864582 0 0.1153791154456983 0.5893236950997235 0 0.1927075022282856 0.6242397625898122 0 0.2764571374728954 0.6528076726236093 0 0.5501260307078504 0.9157080124274183 0 0.5010018151081351 0.9179418307178824 0 0.5250630153549545 0.9578540062137091 0 0.4982783550718213 0.828329071072998 0 0.4478862931489376 0.8415852939733535 0 0.4750779772901206 0.8742523600406722 0 0.4270018182274791 0.7748455103032578 0 0.4122480247267665 0.8148435135884834 0 0.3807375390474236 0.7692653210258054 0 0.4034544631785331 0.6976365327000736 0 0.3611166472462496 0.68206590777056 0 0.3689638615229506 0.7306608322242133 0 0.07539619258341246 0.4768398233222965 0 0.03769809629170623 0.4991341973757299 0 0.07743743132503139 0.5230638753741458 0 0.1430235002041239 0.5157881957117132 0 0.1112510851353871 0.542538061568854 0 0.1471515305144351 0.5625738292425826 0 0.2175071670521008 0.5477913784569416 0 0.1843933639384236 0.5785754206151968 0 0.2258213053419628 0.5934557204315569 0 0.3009805024027953 0.5741244054537948 0 0.3098796668583807 0.6203098441474205 0 0.2675579730173101 0.6066222339299836 0 0.600000000001387 1 0 0.5750630153546186 0.9578540062137092 0 0.5500000000017229 1 0 0.5242021928898358 0.8720185417502082 0 0.4626400866496502 0.801587290688128 0 0.4152281407030062 0.7362410215016658 0 0.3874961043363944 0.6045058593620657 0 0.3531374678251802 0.635500571101556 0 0.3954752837574638 0.6510711960310698 0 1.72722572933646e-18 0.4257142857145927 0 0.03769809629170624 0.4512770545184447 0 0 0.4735714285718781 0 0.1092098463937682 0.4963140095170049 0 0.1802653336281124 0.5317897870843273 0 0.2592438347274481 0.5609578919553682 0 0.3442383033695949 0.5893151324079303 0 0.6547996067305862 0.9007657125087727 0 0.6024628187192183 0.9082368624680955 0 0.6273998033659866 0.9503828562543863 0 0.5904037090299777 0.8429143001748771 0 0.5443410320508996 0.8356216856239376 0 0.5702648698689141 0.8793111563011478 0 0.4913158036241168 0.7286208351528234 0 0.4947970793479691 0.7784749531129109 0 0.459158810925798 0.7517331727280407 0 0.447385133401325 0.7131286839264486 0 0.474518797626666 0.6356120108154574 0 0.4310074509815303 0.6200589350887616 0 0.4389866304025997 0.6666242717577656 0 0.08017840599731758 0.3963300372632158 0 0.0400892029986588 0.4110221614889042 0 0.07778729929036504 0.4365849302927562 0 0.1336105784902603 0.4361702689152495 0 0.1045033855368364 0.456505046118773 0 0.1383170393471921 0.4759792323134814 0 0.2005261160939736 0.4579553459022219 0 0.1717748081490488 0.4868717708069676 0 0.2090166415730372 0.5028733621795818 0 0.2845914509445012 0.4848763822704992 0 0.251049308998301 0.5163338803637204 0 0.2927859766736483 0.529500393862147 0 0.3706525465932459 0.5134749221234858 0 0.3790743254648202 0.5589903907427758 0 0.3358165244980207 0.5437996637886403 0 0.7000000000006935 1 0 0.6773998033656399 0.9503828562543863 0 0.6500000000010402 1 0 0.622601657880282 0.871840006341825 0 0.5766230053207845 0.7565871944151589 0 0.5835133571753812 0.799750747295018 0 0.5374506801963029 0.7924581327440785 0 0.5339694044724507 0.7426040147839912 0 0.4829173006253914 0.6821164229841405 0 0.4575639698313756 0.5427700263992947 0 0.422530037083885 0.5736379428806803 0 0.4660413837290209 0.5891910186073761 0 1.72722572933646e-18 0.33 0 0.0400892029986588 0.3631650186316079 0 0 0.3778571428572964 0 0.1068944922437889 0.4162501530892326 0 0.1670683472921169 0.4470628074087357 0 0.2425587835192374 0.4714158640863606 0 0.3276219987688735 0.4991756521969924 0 0.4141082582123108 0.5281224742613903 0 0.7543567317552735 0.9205245603072644 0 0.7045781692429299 0.9106451364080186 0 0.7271783658779833 0.9602622801536321 0 0.6561937267356621 0.7952487042046709 0 0.62329871788282 0.8190815021897742 0 0.6554966667331243 0.8480072083567219 0 0.6164083660282234 0.775917949309915 0 0.5631276294601403 0.6660590632334465 0 0.5698753173904625 0.7113231288243028 0 0.5272217165421286 0.6973399491931351 0 0.5188232135434032 0.6508355370244521 0 0.544952063405022 0.5736116874732444 0 0.5012580166181988 0.5581908569362696 0 0.509735430515844 0.604611849144351 0 0.08541028510984704 0.318755522614832 0 0.08279434555358231 0.3575427799390239 0 0.04270514255492352 0.324377761307416 0 0.1640593670304531 0.3719448045044551 0 0.1488349727603567 0.4040575367098523 0 0.1221188865138853 0.3841374208838355 0 0.1822927415622134 0.4149500752033386 0 0.2643248175403595 0.3987638367146988 0 0.2324254668171666 0.4283595913084604 0 0.2744581342424303 0.441820109492599 0 0.353929926613926 0.4249789751401973 0 0.3192606887792137 0.4549276787053483 0 0.362291236603586 0.4692269486318416 0 0.4393289521925454 0.4527926137698597 0 0.4484464610119605 0.4977813200845772 0 0.4049907493928957 0.4831337679466727 0 0.7999999999999999 1 0 0.7771783658776368 0.9602622801536322 0 0.7500000000003467 1 0 0.7337357535262906 0.8320636705966576 0 0.6942676801284384 0.8664146915527152 0 0.7440462426407821 0.8762941154519611 0 0.6949647401309764 0.8136561874006644 0 0.6531478674937994 0.703048518595867 0 0.614885436407292 0.729817856505513 0 0.6546707971147308 0.749148611400269 0 0.6081377484769699 0.6845537909146568 0 0.5540398464325812 0.6198353753533455 0 0.5264916765173424 0.482014321273292 0 0.4920278231743591 0.5123921738362933 0 0.5357218699611822 0.5278130043732682 0 0.1247348260701501 0.3453501635596435 0 0.2141920922854063 0.385354320609577 0 0.3091273720771428 0.4118714059274481 0 0.3966294394032358 0.4388857944550285 0 0.4829103143549439 0.4674034675215759 0 0.8469936203174671 0.926623085876644 0 0.8006751760363704 0.9235738230919542 0 0.8234968101587334 0.963311542938322 0 0.8112077680726292 0.8636996853073268 0 0.77247176079946 0.8478816779519923 0 0.7827822499139514 0.8921121228072956 0 0.7394722959461434 0.7432808756465731 0 0.7366040247362171 0.7876722731216155 0 0.6978330113409028 0.7692647899256221 0 0.6963100817199714 0.7231646971212201 0 0.6374023867008554 0.606243392783513 0 0.6452751270973274 0.6546459556896901 0 0.6002650080804979 0.6361512280084798 0 0.5911772250529387 0.589927540
[...]
      <CellData>
        <DataArray type="UInt8" Name="vtkGhostType" format="ascii" RangeMin="0" RangeMax="1">0 0 0 0 0 0 0 0 0 0 0 0 0 0 0 0 0 0 0 0 0 0 0 0 0 0 0 0 0 0 0 0 0 0 0 0 0 0 0 0 0 0 0 0 0 0 0 0 0 0 0 0 0 0 0 0 0 0 0 0 0 0 0 0 0 0 0 0 0 0 0 0 0 0 0 0 0 0 0 0 0 0 0 0 0 0 0 0 0 0 0 0 0 0 0 0 0 0 0 0 0 0 0 0 0 0 0 0 0 0 0 0 0 0 0 0 0 0 0 0 0 0 0 0 0 0 0 0 0 0 0 0 0 0 0 0 0 0 0 0 0 0 0 0 0 0 0 0 0 0 0 0 0 0 0 0 0 0 0 0 0 0 0 0 0 0 0 0 0 0 0 0 0 0 0 0 0 0 0 0 0 0 0 0 0 0 0 0 0 0 0 0 0 0 0 0 0 0 0 0 0 0 0 0 0 0 0 0 0 0 0 0 0 0 0 0 0 0 0 0 0 0 0 0 0 0 0 0 0 0 0 0 0 0 0 0 0 0 0 0 0 0 0 0 0 0 0 0 0 0 </DataArray>
        <DataArray type="Int64" IdType="1" Name="vtkOriginalCellIds" format="ascii" RangeMin="0" RangeMax="249">0 1 2 3 4 5 6 7 8 9 10 11 12 13 14 15 16 17 18 19 20 21 22 23 24 25 26 27 28 29 30 31 32 33 34 35 36 37 38 39 40 41 42 43 44 45 46 47 48 49 50 51 52 53 54 55 56 57 58 59 60 61 62 63 64 65 66 67 68 69 70 71 72 73 74 75 76 77 78 79 80 81 82 83 84 85 86 87 88 89 90 91 92 93 94 95 96 97 98 99 100 101 102 103 104 105 106 107 108 109 110 111 112 113 114 115 116 117 118 119 120 121 122 123 124 125 126 127 128 129 130 131 132 133 134 135 136 137 138 139 140 141 142 143 144 145 146 147 148 149 150 151 152 153 154 155 156 157 158 159 160 161 162 163 164 165 166 167 168 169 170 171 172 173 174 175 176 177 178 179 180 181 182 183 184 185 186 187 188 189 190 191 192 193 194 195 196 197 198 199 200 201 202 203 204 205 206 207 208 209 210 211 212 213 214 215 216 217 218 219 220 221 222 223 224 225 226 227 228 229 230 231 232 233 234 235 236 237 238 239 240 241 242 243 244 245 246 247 248 249 </DataArray>
      </CellData>
      <PointData Vectors="u">
        <DataArray type="Int64" IdType="1" Name="vtkOriginalPointIds" format="ascii" RangeMin="0" RangeMax="540">0 1 2 3 4 5 6 7 8 9 10 11 12 13 14 15 16 17 18 19 20 21 22 23 24 25 26 27 28 29 30 31 32 33 34 35 36 37 38 39 40 41 42 43 44 45 46 47 48 49 50 51 52 53 54 55 56 57 58 59 60 61 62 63 64 65 66 67 68 69 70 71 72 73 74 75 76 77 78 79 80 81 82 83 84 85 86 87 88 89 90 91 92 93 94 95 96 97 98 99 100 101 102 103 104 105 106 107 108 109 110 111 112 113 114 115 116 117 118 119 120 121 122 123 124 125 126 127 128 129 130 131 132 133 134 135 136 137 138 139 140 141 142 143 144 145 146 147 148 149 150 151 152 153 154 155 156 157 158 159 160 161 162 163 164 165 166 167 168 169 170 171 172 173 174 175 176 177 178 179 180 181 182 183 184 185 186 187 188 189 190 191 192 193 194 195 196 197 198 199 200 201 202 203 204 205 206 207 208 209 210 211 212 213 214 215 216 217 218 219 220 221 222 223 224 225 226 227 228 229 230 231 232 233 234 235 236 237 238 239 240 241 242 243 244 245 246 247 248 249 250 251 252 253 254 255 256 257 258 259 260 261 262 263 264 265 266 267 268 269 270 271 272 273 274 275 276 277 278 279 280 281 282 283 284 285 286 287 288 289 290 291 292 293 294 295 296 297 298 299 300 301 302 303 304 305 306 307 308 309 310 311 312 313 314 315 316 317 318 319 320 321 322 323 324 325 326 327 328 329 330 331 332 333 334 335 336 337 338 339 340 341 342 343 344 345 346 347 348 349 350 351 352 353 354 355 356 357 358 359 360 361 362 363 364 365 366 367 368 369 370 371 372 373 374 375 376 377 378 379 380 381 382 383 384 385 386 387 388 389 390 391 392 393 394 395 396 397 398 399 400 401 402 403 404 405 406 407 408 409 410 411 412 413 414 415 416 417 418 419 420 421 422 423 424 425 426 427 428 429 430 431 432 433 434 435 436 437 438 439 440 441 442 443 444 445 446 447 448 449 450 451 452 453 454 455 456 457 458 459 460 461 462 463 464 465 466 467 468 469 470 471 472 473 474 475 476 477 478 479 480 481 482 483 484 485 486 487 488 489 490 491 492 493 494 495 496 497 498 499 500 501 502 503 504 505 506 507 508 509 510 511 512 513 514 515 516 517 518 519 520 521 522 523 524 525 526 527 528 529 530 531 532 533 534 535 536 537 538 539 540 </DataArray>
        <DataArray type="UInt8" Name="vtkGhostType" format="ascii" RangeMin="0" RangeMax="0">0 0 0 0 0 0 0 0 0 0 0 0 0 0 0 0 0 0 0 0 0 0 0 0 0 0 0 0 0 0 0 0 0 0 0 0 0 0 0 0 0 0 0 0 0 0 0 0 0 0 0 0 0 0 0 0 0 0 0 0 0 0 0 0 0 0 0 0 0 0 0 0 0 0 0 0 0 0 0 0 0 0 0 0 0 0 0 0 0 0 0 0 0 0 0 0 0 0 0 0 0 0 0 0 0 0 0 0 0 0 0 0 0 0 0 0 0 0 0 0 0 0 0 0 0 0 0 0 0 0 0 0 0 0 0 0 0 0 0 0 0 0 0 0 0 0 0 0 0 0 0 0 0 0 0 0 0 0 0 0 0 0 0 0 0 0 0 0 0 0 0 0 0 0 0 0 0 0 0 0 0 0 0 0 0 0 0 0 0 0 0 0 0 0 0 0 0 0 0 0 0 0 0 0 0 0 0 0 0 0 0 0 0 0 0 0 0 0 0 0 0 0 0 0 0 0 0 0 0 0 0 0 0 0 0 0 0 0 0 0 0 0 0 0 0 0 0 0 0 0 0 0 0 0 0 0 0 0 0 0 0 0 0 0 0 0 0 0 0 0 0 0 0 0 0 0 0 0 0 0 0 0 0 0 0 0 0 0 0 0 0 0 0 0 0 0 0 0 0 0 0 0 0 0 0 0 0 0 0 0 0 0 0 0 0 0 0 0 0 0 0 0 0 0 0 0 0 0 0 0 0 0 0 0 0 0 0 0 0 0 0 0 0 0 0 0 0 0 0 0 0 0 0 0 0 0 0 0 0 0 0 0 0 0 0 0 0 0 0 0 0 0 0 0 0 0 0 0 0 0 0 0 0 0 0 0 0 0 0 0 0 0 0 0 0 0 0 0 0 0 0 0 0 0 0 0 0 0 0 0 0 0 0 0 0 0 0 0 0 0 0 0 0 0 0 0 0 0 0 0 0 0 0 0 0 0 0 0 0 0 0 0 0 0 0 0 0 0 0 0 0 0 0 0 0 0 0 0 0 0 0 0 0 0 0 0 0 0 0 0 0 0 0 0 0 0 0 0 0 0 0 0 0 0 0 0 0 0 0 0 0 0 0 0 0 0 0 0 0 0 0 0 0 0 0 0 0 0 0 0 0 0 0 0 0 0 0 0 0 0 0 0 0 0 0 0 0 0 0 0 0 0 0 0 0 0 0 0 0 0 0 </DataArray>
        <DataArray type="Float64" Name="u" format="ascii" NumberOfComponents="3">4.907320117591014e-05 -0.000207393556231221 0 2.99913219267704e-20 -0.0002091935778571692 0 3.582055325253132e-05 -0.0002022508042006834 0 1.781344298833466e-05 -0.0002059723719454926 0 4.246282846141519e-05 -0.000204758519636465 0 2.450165476632655e-05 -0.0002087383221715165 0 0 -0.0002015441357521268 0 1.792861383505467e-05 -0.0002021730549818417 0 0 -0.0002052521966152753 0 7.482363214965708e-05 -0.0001978133386469635 0 5.525738077970143e-05 -0.0002003455903042496 0 6.181921884071821e-05 -0.000202787747984062 0 4.493993043467169e-05 -0.0001954455555163424 0 4.032418089657667e-05 -0.0001988204718517897 0 2.230937629149029e-05 -0.0001990519801028736 0 9.866581594329971e-05 -0.0002023137831519159 0 8.675815468393924e-05 -0.0001999489316444442 0 7.377774946111533e-05 -0.0002052202774125334 0 5.991940855973313e-05 -0.0001965900293207339 0 0 -0.0001949775247664936 0 2.253549304638153e-05 -0.0001956952637813758 0 0 -0.0001981185918708159 0 0.0001253740324191457 -0.0001897464207276864 0 9.996002194453492e-05 -0.0001941400842821102 0 0.0001118214979331378 -0.0001962890687464839 0 0.0001006815109380307 -0.0001868160940925639 0 7.262102365155368e-05 -0.0001918119058128544 0 8.753801863976976e-05 -0.0001925894113744296 0 4.117223132517904e-05 -0.0001894315702467269 0 4.300960989626371e-05 -0.0001922868844689566 0 2.036093506060679e-05 -0.0001927993626189838 0 0.0001491092846151302 -0.0001948012976487428 0 0.0001372434444935411 -0.0001921258871304656 0 0.0001237712451317278 -0.0001987951728579616 0 0.0001130380398613217 -0.0001881291650426409 0 8.490615027482293e-05 -0.000184007284466297 0 6.456848474419039e-05 -0.0001903404967260413 0 9.279514119325169e-05 -0.0001852932492600164 0 0 -0.0001896478087533284 0 2.072013810530083e-05 -0.0001900587610947487 0 0 -0.0001921494954100446 0 6.301534435127793e-05 -0.0001871180090376685 0 0.0001771124567325955 -0.0001798794029836688 0 0.0001511153427204985 -0.0001849737636978248 0 0.0001628658605960724 -0.0001876152060679989 0 0.000152719144837787 -0.0001764835014969053 0 0.0001265619336175027 -0.000181901849421047 0 0.0001387997271338572 -0.0001834041399214849 0 0.000133372534956076 -0.0001742250833912081 0 0.0001090422370765214 -0.0001793844426998118 0 0.0001167507645492471 -0.0001808995486981538 0 4.279477658084904e-05 -0.0001842032412587868 0 2.103686842027377e-05 -0.0001877521170740177 0 4.184167106503716e-05 -0.0001867044697391647 0 8.410348972442329e-05 -0.000177958412590409 0 8.436248484628555e-05 -0.0001809149841932531 0 6.216936619692323e-05 -0.0001845130992844225 0 0.0002004545469448641 -0.0001859533263860347 0 0.0001887734867567454 -0.0001827843445166815 0 0.0001746768346341107 -0.0001904745003070863 0 0.0001649160412943666 -0.00017802717310485 0 0.0001430415355329646 -0.0001752294264155553 0 0.0001287664778223257 -0.0001685615280393439 0 0.0001309766393166155 -0.0001713459909304259 0 0.0001063790829860401 -0.0001769589284258853 0 0 -0.0001856540657452786 0 2.170944038409054e-05 -0.0001856215097179619 0 0 -0.0001874943466578081 0 6.351179481498838e-05 -0.0001814326361409741 0 0.0001064270105571573 -0.0001733880929974843 0 0.0002309120280298772 -0.0001691254387453066 0 0.000203921543599939 -0.000174497064304404 0 0.0002154085098163783 -0.0001777895432151809 0 0.0002053987730404843 -0.0001652328300961129 0 0.0001789658888710056 -0.0001708692709843301 0 0.0001910105468225943 -0.0001727879408804809 0 0.000176926877396248 -0.0001600346586368284 0 0.000154936715239834 -0.0001673827344930759 0 0.0001644092812657588 -0.0001686054910749558 0 0.0001528892350943659 -0.0001640774250974149 0 4.678706719744108e-05 -0.000179490157167993 0 4.444007164831093e-05 -0.0001817865764852138 0 2.271681947484763e-05 -0.000183762491792453 0 8.581101037084658e-05 -0.0001718327501737961 0 6.364880140858004e-05 -0.0001789774808522288 0 8.462457647098347e-05 -0.0001748536492248701 0 0.0001308649624904662 -0.0001599128243830109 0 0.0001294777752761675 -0.0001642663463998312 0 0.0001068085664624507 -0.0001698141910427802 0 0.0002525028449992037 -0.0001768204351084088 0 0.0002416739257490731 -0.0001728861676994964 0 0.0002264102189553175 -0.0001813650485569894 0 0.0002181509891202329 -0.0001670426559970118 0 0.0001911112369772525 -0.0001623675672220693 0 0.0001767274624292824 -0.0001478406783332975 0 0.0001521680852045006 -0.0001587877411760921 0 0.0001764021557628329 -0.000154009277863887 0 0 -0.0001825383859569462 0 2.413976106502171e-05 -0.0001820266048559314 0 0 -0.0001840577921988137 0 6.652743041865597e-05 -0.0001759616242919942 0 0.0001084082093738993 -0.0001659623950689245 0 0.0001538487614049546 -0.0001536861900539731 0 0.0002834631712555036 -0.0001584671036523544 0 0.0002571465032771624 -0.0001636961273297681 0 0.0002676960938147136 -0.0001678442215406835 0 0.0002618124827654599 -0.0001488658556029619 0 0.0002334370454679082 -0.0001570500210626724 0 0.0002459425890058234 -0.0001592867930379536 0 0.000227144065139337 -0.0001485725450975816 0 0.0002159261455727401 -0.0001571434825635019 0 0.0002020327480152652 -0.0001541417424505256 0 0.0002216605403358018 -0.0001385491595303555 0 0.0001992770518680894 -0.0001428536610620236 0 0.0001987621921384295 -0.0001496717469284162 0 5.23448207790689e-05 -0.0001752008658132244 0 2.489675471504659e-05 -0.0001803788848274241 0 4.881280499425008e-05 -0.0001774805989838793 0 9.127514466725694e-05 -0.0001655691586108289 0 6.801180371881346e-05 -0.0001736135982734849 0 8.771909861787215e-05 -0.0001687269420000405 0 0.000132674588979378 -0.0001518501764076783 0 0.0001082239344248573 -0.0001628522722059872 0 0.0001310713817484846 -0.0001558708484467678 0 0.000179133013046122 -0.0001361585477343119 0 0.000177257381792995 -0.0001420797627218241 0 0.0001541161480486877 -0.00014876773731994 0 0.0003049152145054695 -0.0001682071388361951 0 0.0002941236510910568 -0.0001632892166069606 0 0.000278686731478208 -0.0001724108076589509 0 0.0002725402624233283 -0.0001535950629750282 0 0.000244515746629978 -0.0001484998330578344 0 0.0002241749542324689 -0.0001435820168918168 0 0.0002256086931769081 -0.0001237263299411422 0 0.0002005434355405676 -0.0001361530988950447 0 0.0002230116086451696 -0.0001312955288823089 0 0 -0.0001777208867716094 0 2.812574287820175e-05 -0.0001778915470730861 0 0 -0.000180637752783032 0 7.235408314116244e-05 -0.0001708469682297924 0 0.0001121993382426269 -0.0001587587441851682 0 0.0001560406945463968 -0.0001437240225908643 0 0.0002025158527673152 -0.000129432114436997 0 0.000340313887841344 -0.0001465217417982849 0 0.0003118814348619168 -0.0001523208745046806 0 0.000322262302688223 -0.0001575397522873674 0 0.0003105698272551401 -0.0001417309445854605 0 0.0002862609347608309 -0.0001450590676221027 0 0.0002967767447004907 -0.0001502158804985431 0 0.000267649879368165 -0.0001315259361797107 0 0.0002642998735196692 -0.0001403812491262582 0 0.0002471789736932401 -0.0001401200387276059 0 0.000244764404990607 -0.0001346723698512877 0 0.0002710638742893143 -0.0001153475624623435 0 0.0002484852787213832 -0.0001190497887626255 0 0.0002459252776140655 -0.0001270680397170772 0 7.281072004600531e-05 -0.0001670962288939974 0 3.463217020007526e-05 -0.0001742534311565093 0 6.054793695888485e-05 -0.0001719106761524763 0 0.0001021691385113321 -0.0001601303921453554 0 7.608471799338183e-05 -0.0001687138865622879 0 9.542105242788249e-05 -0.0001629981144143989 0 0.0001422130945457873 -0.0001440683606637569 0 0.0001153766621867516 -0.0001558131252580139 0 0.0001359848024033 -0.0001479584467278365 0 0.0001891267489602988 -0.0001238873765333868 0 0.0001597365008847451 -0.0001386996999075296 0 0.0001829418396669178 -0.0001301301657078843 0 0.0002349900629438178 -0.0001081018069124255 0 0.0002293169673379217 -0.0001160904170492033 0 0.0002063370696326502 -0.0001224509903711815 0 0.0003573318149321577 -0.0001606052249919963 0 0.000348665182850823 -0.0001535888416523903 0 0.000331143688023604 -0.0001642607649092672 0 0.0003254365775913813 -0.000144021876216216 0 0.0003117157581714083 -0.000126844096531042 0 0.000310857230268145 -0.0001343908085950657 0 0.0002864058565115225 -0.0001379336045668241 0 0.0002897868793904721 -0.0001288957704461829 0 0.0002688251066897444 -0.0001235961552132483 0 0.0002796523019573056 -9.781823430221869e-05 0 0.0002521835382088126 -0.0001107759109542015 0 0.0002745463059681092 -0.0001067675115077812 0 0 -0.0001583166816285515 0 4.407262462907989e-05 -0.0001667925190931726 0 0 -0.0001710298997692848 0 8.835804059702849e-05 -0.0001644468981286678 0 0.0001226240112688863 -0.0001523200551140122 0 0.0001659395260504609 -0.000133591542629722 0 0.0002122529248773925 -0.0001152857628190289 0 0.0002575037249824864 -0.0001023035499149912 0 0.0003913635678156111 -0.000142846483942915 0 0.0003659288374133317 -0.0001444717419536149 0 0.0003741565043134918 -0.0001517694018032616 0 0.0003506940050308424 -0.0001267881903208647 0 0.0003305303939797095 -0.0001342080703537472 0 0.0003451229203493843 -0.000136808713066751 0 0.0003312697117971088 -0.0001266166525210731 0 0.0003163285077106674 -0.0001101317045486912 0 0.0003135817347603792 -0.0001186259469071648 0 0.0002917103054685021 -0.0001207936757179793 0 0.0002938422510619505 -0.0001123381474428351 0 0.0003228450228403925 -9.238935701054984e-05 0 0.0003014009047572837 -9.461214872953624e-05 0 0.0002967167976159574 -0.0001037081060945299 0 0.0001204423888644 -0.0001523140984399728 0 9.120504374243009e-05 -0.0001611516126790686 0 6.171043715634617e-05 -0.0001548166999761505 0 0.0001531642820979406 -0.0001432632038632032 0 0.0001251786317567234 -0.0001523213527976098 0 0.0001132030627997434 -0.0001571772058097791 0 0.0001449503885238542 -0.0001434040386847364 0 0.0002084338603719188 -0.0001130034568741687 0 0.0001740832884513641 -0.0001293383635869143 0 0.0001967066868791544 -0.0001183769758425886 0 0.0002536580971555593 -9.173820034695304e-05 0 0.0002207397398204842 -0.0001079813391004341 0 0.000242801751092101 -0.0001000393239738888 0 0.0002945051494915797 -7.978934453317704e-05 0 0.0002859458499459606 -8.89455269691093e-05 0 0.0002644352032249526 -9.373649297080671e-05 0 0.0004094547038448955 -0.0001542270886297032 0 0.0004003121013080076 -0.0001485476994432785 0 0.0003834449263823093 -0.0001572587610814149 0 0.0003883105659963002 -0.000127884793164813 0 0.0003641498907168507 -0.0001371463178161522 0 0.0003896236827478837 -0.0001354366890617263 0 0.0003695546421790045 -0.0001271962269087964 0 0.0003603261607634494 -0.0001088886822694487 0 0.0003359270227722938 -0.000117712015582045 0 0.0003551327500975199 -0.0001179525963368993 0 0.0003384337973566967 -0.0001092113001820403 0 0.0003189530903943994 -0.0001014055744679759 0 0.000334923075748466 -7.379222349445813e-05 0 0.0003072100555665687 -8.544323315700415e-05 0 0.000328027482890648 -8.320580644616645e-05 0 0.000138725071402137 -0.0001510701409014264 0 0.0001816403114256231 -0.0001283053520820791 0 0.0002312145017411186 -0.0001013549703180132 0 0.0002741998906669482 -8.490157289455796e-05 0 0.0003148259525226592 -7.617689646701103e-05 0 0.000439172416393315 -0.0001385971138133031 0 0.0004153469091191746 -0.0001405635351935159 0 0.0004241908322333959 -0.0001464152495546479 0 0.0004259817285508692 -0.0001290232586936975 0 0.0004071949849527864 -0.0001283443974269052 0 0.000408596866042202 -0.0001358927774402454 0 0.0004012101252561427 -0.0001104886085214942 0 0.0003944748393552944 -0.0001192577081857789 0 0.0003759367269651474 -0.0001184443336064026 0 0.000380823900841053 -0.0001095050557605296 0 0.0003673267485932492 -9.019837251370428e-05 0 0.0003632947178658659 -9.965576705917165e-05 0 0.0003417677139883177 -9.990938328334791e-05 0 0.0003452180930298045 -9.092128750315735e-05 0 0.0003751399684919488 -7.168132840686982e-05 0 0.0003490414305278995 -8.164656374933973e-05 0 0.000355121549750616 -7.234135105714462e-05 0 0.0002331874384926554 -0.0001360372492720205 0 0.0001854212875176162 -0.000138169453868563 0 0.0001801819302126451 -0.0001442888322080312 0 0.00024996674446907 -0.0001049706432105187 0 0.0002255677372802694 -0.0001082907545899501 0 0.0002018208723336857 -0.0001253940842451069 0 0.0002870598096573099 -7.570342051673053e-05 0 0.0002476809520969454 -9.432522930157408e-05 0 0.0002680403198641206 -8.354141530562242e-05 0 0.0003195160739663333 -6.148259708187292e-05 0 0.0003055094474887628 -7.062977762493439e-05 0 0.0002867021307591934 -7.60803222756913e-05 0 0.0003539080840657978 -5.511192253921718e-05 0 0.0003433586078899966 -6.445904357645924e-05 0 0.0003244771731640589 -6.680488862833207e-05 0 0.0004610829548348751 -0.000149084623008265 0 0.0004500513645925513 -0.0001438440560706614 0 0.0004353392858683978 -0.000151506145239284 0 0.000432495107221418 -0.0001338267871182637 0 0.0004376823355132718 -0.0001146878115111097 0 0.0004316708283554011 -0.000121886418262331 0 0.0004130405949798635 -0.0001211013494550211 0 0.0004194513973714403 -0.0001124946943078593 0 0.0004163976122198288 -8.909010901605912e-05 0 0.0004083076222204173 -9.985459718324686e-05 0 0.000388397035437284 -9.864769435772638e-05 0 0.0003920177854924452 -8.933578142917657e-05 0 0.0003705524188681405 -8.101978635649278e-05 0 0.000389427431057462 -5.346778444345809e-05 0 0.0003815321898601626 -6.255994173567662e-05 0 0.0003625043326867718 -6.303432520193533e-05 0 0.0002402723114008198 -0.0001208611594735681 0 0.000268136844889568 -8.889299155567961e-05 0 0.0003030321836395182 -6.734541286380959e-05 0 0.0003366373022319632 -5.75309407716917e-05 0 0.0003716287563317318 -5.384740437768783e-05 0 0.0004802453424185617 -0.0001349658196987631 0 0.0004597705433382583 -0.0001366759594000906 0 0.0004705624918459365 -0.0001420326070639956 0 0.0004740270473066387 -0.0001222094883720957 0 0.0004500991953953818 -0.0001254562670794241 0 0.0004565026348939789 -0.0001303495873765602 0 0.0004558063772101176 -0.0001183993457539527 0 0.0004535190937077382 -9.714400031195714e-05 0 0.0004453584169384268 -0.0001059244675536305 0 0.0004275011907823088 -0.0001035457714264063 0 0.0004348270684440896 -9.305092412200303e-05 0 0.0004147265617220916 -7.169835602079571e-05 0 0.0004150053442538427 -8.045482299221103e-05 0 0.0003910853398286801 -8.062547353522374e-05 0 0.0003950044244631245 -7.14489167004274e-05 0 0.0004248533918316433 -5.418506754378188e-05 0 0.000407122406904662 -5.35906976034242e-05 0 0.0004002962138309393 -6.245002249569496e-05 0 0.0003308348462444385 -0.0001102477805674718 0 0.0002852718046437519 -0.0001043238069201856 0 0.0002864676863415971 -0.0001243257986644584 0 0.0003488765788904667 -6.090399882109964e-05 0 0.0003152978863294117 -6.733318867731837e-05 0 0.0003018903772861691 -8.310427518100446e-05 0 0.0003571763968016718 -4.455145697147963e-05 0 0.0003368837306701493 -5.269543295855902e-05 0 0.0003233374858205039 -5.91111293812894e-05 0 0.0003811666815663849 -3.754213292435373e-05 0 0.0003512622731017314 -4.852841285159705e-05 0 0.0003664534613419901 -4.6119287039240