<?xml version="1.0"?>
<VTKFile type="UnstructuredGrid" version="2.2">
  <UnstructuredGrid>
    <Piece NumberOfPoints="499" NumberOfCells="917">
      <Points>
        <DataArray type="Float64" NumberOfComponents="3" format="ascii">0.05000000000020799 1 0 0 1 0 0.0351309289030932 0.9648212788283614 0 0 0.9521428571430245 0 0.07410899581881705 0.9521996145697518 0 0.03619501900775206 0.926345089326857 0 0.100000000000416 1 0 0 0.9042857142860055 0 0.1248529153442665 0.956120850011662 0 0.06687247752010168 0.9046953647350729 0 0.03995967849156585 0.8811195503969798 0 0.1500000000006241 1 0 0.1041851337259505 0.9107482218708778 0 0 0.8564285714290331 0 0.1748681729373526 0.9567842847419464 0 0.1499719704252519 0.9138026589040573 0 0.07966333293493724 0.8634453161374083 0 0.03840827855926977 0.8348464763491745 0 0.2000000000008322 1 0 0.1268034267604371 0.8708417799831528 0 0 0.8085714285720079 0 0.2246404670128038 0.956727521349138 0 0.1995360174741327 0.9144910843954965 0 0.1774405494969257 0.8724438877231054 0 0.1115930541346348 0.8340250335536372 0 0.07602048542013641 0.8117390862821087 0 0.03820291850737723 0.7868281736043907 0 0.2500000000010403 1 0 0.1536069854541921 0.8323862547732888 0 0 0.76071428571502 0 0.2745448495310301 0.9571412529838124 0 0.2492476249254674 0.9168579380103475 0 0.2272140590908039 0.8769016055535164 0 0.2081527951633738 0.8297369538662961 0 0.1255954212570858 0.7936705302805181 0 0.07758026506890398 0.76522136627175 0 0.03884761596553089 0.7397151781244318 0 0.3000000000012483 1 0 0.1752869397007605 0.8004655258336414 0 0 0.7128571428580415 0 0.3245071376295364 0.9562490784030173 0 0.2979885698787196 0.9139702903734142 0 0.273795967351426 0.8848766796418686 0 0.2626312742265792 0.8461018490988257 0 0.209732553405408 0.7805104206758753 0 0.1648182046189237 0.761183145811741 0 0.1196886593824928 0.7452361389390539 0 0.07859301758627171 0.7202362119479928 0 0.0387094946306324 0.6924338883493967 0 0.3500000000014564 1 0 0.2542904856410648 0.8006402831620031 0 0 0.6650000000010197 0 0.373284899006271 0.9562741347734394 0 0.3430309434764285 0.9129205905472558 0 0.3110404327093357 0.8694034880048852 0 0.3000150623980873 0.8184826618276755 0 0.2471551145158154 0.7522626095381879 0 0.2020763707794245 0.733897979317265 0 0.1568569203435874 0.7162228111855012 0 0.1138350600403664 0.6979878301221817 0 0.07568885218682128 0.6720574194224616 0 0.04144550146682792 0.6410714285723863 0 0.4000000000016644 1 0 0.292627422214226 0.7702113320186724 0 0 0.6171428571437529 0 0.4236036933992229 0.956837290899007 0 0.3944111608198446 0.907096064827361 0 0.3546636455807479 0.8744456910941218 0 0.3451575660533613 0.8350266534510349 0 0.3376980219858877 0.7880727075401645 0 0.2853363776661971 0.7218541730729764 0 0.2400287449018446 0.7039859303198291 0 0.1948470389101201 0.6860936010624592 0 0.1497949142072117 0.6682256799877614 0 0.1061321101669463 0.6502253568429579 0 0.0754179292298829 0.6303898006998543 0 0.04961450465350654 0.5940262792870892 0 0.4500000000018723 1 0 0.3305659936170309 0.7396188154750805 0 0 0.5692857142864644 0 0.47589649594346 0.9493846211632955 0 0.4410098504916174 0.9165864644513614 0 0.3892861754132652 0.8540509040872456 0 0.3821832291388431 0.8063475781717864 0 0.3752774914260535 0.7579586914411093 0 0.2781204190087191 0.6736713706705819 0 0.3234794389747653 0.6915195082123563 0 0.2328404555346584 0.6559009418012425 0 0.1876968612768292 0.6381499384065902 0 0.1427150118797226 0.6204077640030184 0 0.1005662486421979 0.6023721043900203 0 0.04206380347803432 0.5412212912316063 0 0.5000000000020587 1 0 0.4337520238025478 0.8750620751777793 0 0.3687912448725289 0.7092338757439479 0 0.09026619352078842 0.5557516064518678 0 0 0.5214285714291634 0 0.5266930262108331 0.9577040566899753 0 0.477385878493012 0.8945522701893638 0 0.4260364170382286 0.8262253126767269 0 0.4196437029162624 0.7767511998344379 0 0.413269745979751 0.7276259227565756 0 0.3162199338333269 0.6433692036755171 0 0.2708654961846108 0.6256844161481447 0 0.361567841256591 0.6611615782530339 0 0.2256000886991942 0.6080341801969041 0 0.1805010275780292 0.5903704404347114 0 0.1356440453482549 0.572703346485781 0 0.04103489330826546 0.4934411816160771 0 0.08562613746159464 0.5079272774530208 0 0.5500000000017335 1 0 0.5103030971526219 0.9186839226999343 0 0.4720833563444791 0.8442931671838469 0 0.4066678556268106 0.6789402177242839 0 0.1289803515372773 0.5250649098294138 0 0 0.473571428571878 0 0.5752752136824311 0.9569097132192158 0 0.5508603763897448 0.9141024127775241 0 0.521971927672843 0.8698575898280141 0 0.4649407444235568 0.7954119678800942 0 0.4582687990814067 0.7462771030520406 0 0.4513259014177868 0.6972795703766118 0 0.3542122389340754 0.6130615664570996 0 0.309028986495706 0.5953030792200162 0 0.2634314316910091 0.5778238959978853 0 0.3993930306029704 0.6307953934790256 0 0.2182652599300287 0.5602754483928511 0 0.1732704771760278 0.5427358396055855 0 0.0412274359694085 0.4491978857017348 0 0.0822487950053023 0.4631564886888364 0 0.1230752250392104 0.4783671031261084 0 0.6000000000013869 1 0 0.510677745839743 0.8134899011878206 0 0.4444333028804797 0.6487947763286764 0 0.1661483355579058 0.495202677573426 0 0 0.4257142857145927 0 0.6249375054763102 0.9567351874485195 0 0.5999875225848442 0.9141994721846636 0 0.575002517677427 0.874266463196732 0 0.5575814719076636 0.8290646915290993 0 0.5035108705458868 0.764655843089876 0 0.4959856968550059 0.7159111551267947 0 0.4893760546133826 0.6669555719251068 0 0.3466833799489177 0.5650698416634852 0 0.3921159577721292 0.5828026660372365 0 0.3013095311274238 0.5474891438496294 0 0.2555687064102061 0.5302390893244773 0 0.4373702267710396 0.6005328880545654 0 0.210863236839844 0.5127896670909449 0 0.04144550146695013 0.4017857142859501 0 0.07968521043128934 0.420087073706514 0 0.1203120634774109 0.4318770967205484 0 0.1606390864194546 0.4479506696228699 0 0.6500000000010401 1 0 0.5492263618895391 0.7827055685433861 0 0.4824859343051031 0.6186097350182178 0 0.2037594963878574 0.4654066320184769 0 0 0.3778571428573072 0 0.6748961106506012 0.9567722798522957 0 0.6498136263770087 0.9135985534028715 0 0.6244133933088377 0.8734554065086889 0 0.5993586871096956 0.8404454930356424 0 0.5958950501185725 0.8003389129634801 0 0.5418654878635092 0.7339642662237639 0 0.5345450928897006 0.6852995026496358 0 0.5275088250097377 0.6367047426371993 0 0.384270825611985 0.5349079857534838 0 0.3386578006015227 0.5175332676673144 0 0.4300883093021948 0.5525370011656221 0 0.2931918676269519 0.5001572922876616 0 0.2481671455770382 0.4828783156308525 0 0.4753196010943317 0.5702158748679913 0 0.03484605209167942 0.3625675767022785 0 0.07696784702137473 0.3675452770070216 0 0.110513728807242 0.3923336515936737 0 0.151127142136872 0.4006496260453608 0 0.1959208357725721 0.4180446626770965 0 0.7000000000006934 1 0 0.5877866252394939 0.7519475830338004 0 0.5203812286719101 0.5882834173693782 0 0.240961351240131 0.4357286053627399 0 0 0.33 0 0.7248910906525695 0.9566667631984673 0 0.6997344413959855 0.9136331750639164 0 0.6745484027728048 0.8714293350239629 0 0.6439010025359772 0.8251019909802119 0 0.6353628152963346 0.7713158724813569 0 0.5804292691226631 0.7032283140726827 0 0.5731606144727577 0.6545802369094652 0 0.56585498948834 0.6061218829985915 0 0.4224288196481268 0.5046972878653686 0 0.3762640332887282 0.48729042343277 0 0.3302271660051302 0.4702849190168573 0 0.4679696064877491 0.5222798239368871 0 0.285457530094599 0.452976689935633 0 0.5132459010418053 0.5399477846282053 0 0.04696389673674634 0.3266410758053865 0 0.1302180653568376 0.3481745399216107 0 0.1838323017312945 0.3691134770920672 0 0.23258949709086 0.3881240567758077 0 0.7500000000003466 1 0 0.6263195349768048 0.721182038500999 0 0.5585784610392337 0.5577741014510136 0 0.2781610924018978 0.4056319353920908 0 0.09297174401054652 0.3166326812185334 0 0.7749489766572917 0.9566683333612486 0 0.7497053230184649 0.9135266879840829 0 0.7245253772446403 0.8705665174432796 0 0.698902268966787 0.8302815594344528 0 0.6802594763770913 0.7877304592404653 0 0.6722697421956247 0.7391787025450012 0 0.6189601528755704 0.672430684278255 0 0.6115050319719331 0.6238849054839826 0 0.6040680548581197 0.5755422373386426 0 0.4607019326594874 0.4743921945753878 0 0.4152046039530451 0.4569226666796842 0 0.3692047515142087 0.4396887134776903 0 0.3235854898750015 0.4221968617331915 0 0.5059408225256339 0.4919411016069922 0 0.5512852581945651 0.5095109825963959 0 0.1370869546540424 0.3001785583010227 0 0.1786539191806633 0.3224186388456312 0 0.224683371120485 0.3419232673620562 0 0.2719780302787794 0.3583023927687961 0 0.7999999999999998 1 0 0.6648710702231926 0.690299526298916 0 0.5967514578036814 0.5271784302508373 0 0.3175980573874883 0.3747962689561226 0 0.8249972283074323 0.9567005096407425 0 0.8000000000214066 0.9134005586302668 0 0.7741320521388964 0.87022478020732 0 0.7472034036531345 0.8284835169844978 0 0.7213941584143081 0.7961634159734365 0 0.7173784426238883 0.7556635015890373 0 0.7108671960274227 0.7082792609811692 0 0.657339710633935 0.6416536719284605 0 0.6497028991022815 0.5932018614864036 0 0.6422373745407162 0.5448824761327948 0 0.4533351605891787 0.4267083735809134 0 0.498536530598744 0.4440797290929543 0 0.407805626525537 0.4093342566960479 0 0.3627464167149819 0.3915727269231314 0 0.5438686750558908 0.4613942305935778 0 0.5892946722201153 0.4789363753507681 0 0.1784114701979866 0.277613665553036 0 0.2204641878920361 0.2943740753117435 0 0.2659625704840459 0.3108145134272551 0 0.3127460580891538 0.3268616020237734 0 0.8499999999996529 1 0 0.7034124576013699 0.6593474731584852 0 0.6348399630380197 0.4965659507964716 0 0.3563712569651153 0.3442120948957527 0 0.8745941861226763 0.9569270797574694 0 0.8499623787951709 0.9134301182908626 0 0.8250166599577589 0.8701727223255193 0 0.7982413309944431 0.825483197162342 0 0.7657708633716571 0.777394831953568 0 0.7565703889865338 0.7257282066159868 0 0.7494218750840453 0.6772258673296832 0 0.69575085342262
[...]
      <CellData Tensors="stress" Vectors="von_mises_stress">
        <DataArray type="UInt8" Name="vtkGhostType" format="ascii" RangeMin="0" RangeMax="1">0 0 0 0 0 0 0 0 0 0 0 0 0 0 0 0 0 0 0 0 0 0 0 0 0 0 0 0 0 0 0 0 0 0 0 0 0 0 0 0 0 0 0 0 0 0 0 0 0 0 0 0 0 0 0 0 0 0 0 0 0 0 0 0 0 0 0 0 0 0 0 0 0 0 0 0 0 0 0 0 0 0 0 0 0 0 0 0 0 0 0 0 0 0 0 0 0 0 0 0 0 0 0 0 0 0 0 0 0 0 0 0 0 0 0 0 0 0 0 0 0 0 0 0 0 0 0 0 0 0 0 0 0 0 0 0 0 0 0 0 0 0 0 0 0 0 0 0 0 0 0 0 0 0 0 0 0 0 0 0 0 0 0 0 0 0 0 0 0 0 0 0 0 0 0 0 0 0 0 0 0 0 0 0 0 0 0 0 0 0 0 0 0 0 0 0 0 0 0 0 0 0 0 0 0 0 0 0 0 0 0 0 0 0 0 0 0 0 0 0 0 0 0 0 0 0 0 0 0 0 0 0 0 0 0 0 0 0 0 0 0 0 0 0 0 0 0 0 0 0 0 0 0 0 0 0 0 0 0 0 0 0 0 0 0 0 0 0 0 0 0 0 0 0 0 0 0 0 0 0 0 0 0 0 0 0 0 0 0 0 0 0 0 0 0 0 0 0 0 0 0 0 0 0 0 0 0 0 0 0 0 0 0 0 0 0 0 0 0 0 0 0 0 0 0 0 0 0 0 0 0 0 0 0 0 0 0 0 0 0 0 0 0 0 0 0 0 0 0 0 0 0 0 0 0 0 0 0 0 0 0 0 0 0 0 0 0 0 0 0 0 0 0 0 0 0 0 0 0 0 0 0 0 0 0 0 0 0 0 0 0 0 0 0 0 0 0 0 0 0 0 0 0 0 0 0 0 0 0 0 0 0 0 0 0 0 0 0 0 0 0 0 0 0 0 0 0 0 0 0 0 0 0 0 0 0 0 0 0 0 0 0 0 0 0 0 0 0 0 0 0 0 0 0 0 0 0 0 0 0 0 0 0 0 0 0 0 0 0 0 0 0 0 0 0 0 0 0 0 0 0 0 0 0 0 0 0 0 0 0 0 0 0 0 0 0 0 0 0 0 0 0 0 0 0 0 0 0 0 0 0 0 0 0 0 0 0 0 0 0 0 0 0 0 0 0 0 0 0 0 0 0 0 0 0 0 0 0 0 0 0 0 0 0 0 0 0 0 0 0 0 0 0 0 0 0 0 0 0 0 0 0 0 0 0 0 0 0 0 0 0 0 0 0 0 0 0 0 0 0 0 0 0 0 0 0 0 0 0 0 0 0 0 0 0 0 0 0 0 0 0 0 0 0 0 0 0 0 0 0 0 0 0 0 0 0 0 0 0 0 0 0 0 0 0 0 0 0 0 0 0 0 0 0 0 0 0 0 0 0 0 0 0 0 0 0 0 0 0 0 0 0 0 0 0 0 0 0 0 0 0 0 0 0 0 0 0 0 0 0 0 0 0 0 0 0 0 0 0 0 0 0 0 0 0 0 0 0 0 0 0 0 0 0 0 0 0 0 0 0 0 0 0 0 0 0 0 0 0 0 0 0 0 0 0 0 0 0 0 0 0 0 0 0 0 0 0 0 0 0 0 0 0 0 0 0 0 0 0 0 0 0 0 0 0 0 0 0 0 0 0 0 0 0 0 0 0 0 0 0 0 0 0 0 0 0 0 0 0 0 0 0 0 0 0 0 0 0 0 0 0 0 0 0 0 0 0 0 0 0 0 0 0 0 0 0 0 0 0 0 0 0 0 0 0 0 0 0 0 0 0 0 0 0 0 0 0 0 0 0 0 0 0 0 0 0 0 0 0 0 0 0 0 0 0 0 0 0 0 0 0 0 0 0 0 0 0 0 0 0 0 0 0 0 0 0 0 0 0 0 0 0 0 0 0 0 0 0 0 0 0 0 0 0 0 0 0 0 0 0 0 0 0 0 0 0 0 0 0 0 0 0 0 0 0 0 0 0 0 0 0 0 0 0 0 0 0 0 0 0 0 0 0 0 0 0 0 </DataArray>
        <DataArray type="Int64" IdType="1" Name="vtkOriginalCellIds" format="ascii" RangeMin="0" RangeMax="916">0 1 2 3 4 5 6 7 8 9 10 11 12 13 14 15 16 17 18 19 20 21 22 23 24 25 26 27 28 29 30 31 32 33 34 35 36 37 38 39 40 41 42 43 44 45 46 47 48 49 50 51 52 53 54 55 56 57 58 59 60 61 62 63 64 65 66 67 68 69 70 71 72 73 74 75 76 77 78 79 80 81 82 83 84 85 86 87 88 89 90 91 92 93 94 95 96 97 98 99 100 101 102 103 104 105 106 107 108 109 110 111 112 113 114 115 116 117 118 119 120 121 122 123 124 125 126 127 128 129 130 131 132 133 134 135 136 137 138 139 140 141 142 143 144 145 146 147 148 149 150 151 152 153 154 155 156 157 158 159 160 161 162 163 164 165 166 167 168 169 170 171 172 173 174 175 176 177 178 179 180 181 182 183 184 185 186 187 188 189 190 191 192 193 194 195 196 197 198 199 200 201 202 203 204 205 206 207 208 209 210 211 212 213 214 215 216 217 218 219 220 221 222 223 224 225 226 227 228 229 230 231 232 233 234 235 236 237 238 239 240 241 242 243 244 245 246 247 248 249 250 251 252 253 254 255 256 257 258 259 260 261 262 263 264 265 266 267 268 269 270 271 272 273 274 275 276 277 278 279 280 281 282 283 284 285 286 287 288 289 290 291 292 293 294 295 296 297 298 299 300 301 302 303 304 305 306 307 308 309 310 311 312 313 314 315 316 317 318 319 320 321 322 323 324 325 326 327 328 329 330 331 332 333 334 335 336 337 338 339 340 341 342 343 344 345 346 347 348 349 350 351 352 353 354 355 356 357 358 359 360 361 362 363 364 365 366 367 368 369 370 371 372 373 374 375 376 377 378 379 380 381 382 383 384 385 386 387 388 389 390 391 392 393 394 395 396 397 398 399 400 401 402 403 404 405 406 407 408 409 410 411 412 413 414 415 416 417 418 419 420 421 422 423 424 425 426 427 428 429 430 431 432 433 434 435 436 437 438 439 440 441 442 443 444 445 446 447 448 449 450 451 452 453 454 455 456 457 458 459 460 461 462 463 464 465 466 467 468 469 470 471 472 473 474 475 476 477 478 479 480 481 482 483 484 485 486 487 488 489 490 491 492 493 494 495 496 497 498 499 500 501 502 503 504 505 506 507 508 509 510 511 512 513 514 515 516 517 518 519 520 521 522 523 524 525 526 527 528 529 530 531 532 533 534 535 536 537 538 539 540 541 542 543 544 545 546 547 548 549 550 551 552 553 554 555 556 557 558 559 560 561 562 563 564 565 566 567 568 569 570 571 572 573 574 575 576 577 578 579 580 581 582 583 584 585 586 587 588 589 590 591 592 593 594 595 596 597 598 599 600 601 602 603 604 605 606 607 608 609 610 611 612 613 614 615 616 617 618 619 620 621 622 623 624 625 626 627 628 629 630 631 632 633 634 635 636 637 638 639 640 641 642 643 644 645 646 647 648 649 650 651 652 653 654 655 656 657 658 659 660 661 662 663 664 665 666 667 668 669 670 671 672 673 674 675 676 677 678 679 680 681 682 683 684 685 686 687 688 689 690 691 692 693 694 695 696 697 698 699 700 701 702 703 704 705 706 707 708 709 710 711 712 713 714 715 716 717 718 719 720 721 722 723 724 725 726 727 728 729 730 731 732 733 734 735 736 737 738 739 740 741 742 743 744 745 746 747 748 749 750 751 752 753 754 755 756 757 758 759 760 761 762 763 764 765 766 767 768 769 770 771 772 773 774 775 776 777 778 779 780 781 782 783 784 785 786 787 788 789 790 791 792 793 794 795 796 797 798 799 800 801 802 803 804 805 806 807 808 809 810 811 812 813 814 815 816 817 818 819 820 821 822 823 824 825 826 827 828 829 830 831 832 833 834 835 836 837 838 839 840 841 842 843 844 845 846 847 848 849 850 851 852 853 854 855 856 857 858 859 860 861 862 863 864 865 866 867 868 869 870 871 872 873 874 875 876 877 878 879 880 881 882 883 884 885 886 887 888 889 890 891 892 893 894 895 896 897 898 899 900 901 902 903 904 905 906 907 908 909 910 911 912 913 914 915 916 </DataArray>
        <DataArray type="Float64" Name="stress" format="ascii" NumberOfComponents="9">107374411.3707649 591066.8971526001 591066.8971526001 14891537.84212182 0 0 0 0 0 107712012.8277911 647353.4211978759 647353.4211978759 14764174.34281685 0 0 0 0 0 107818091.4527858 1398685.483137762 1398685.483137762 14010634.24359028 0 0 0 0 0 108139438.672078 335211.5115675101 335211.5115675101 15458324.91293606 0 0 0 0 0 107584993.8928648 1832489.346966793 1832489.346966793 14614996.57686038 0 0 0 0 0 108318901.3310354 1605635.86327803 1605635.86327803 15603409.73055987 0 0 0 0 0 108797581.0570426 720521.3395458232 720521.3395458232 16209224.45706389 0 0 0 0 0 108116623.3186368 2699092.413556217 2699092.413556217 13280646.75590562 0 0 0 0 0 108723839.5302696 1399895.590068219 1399895.590068219 15702380.92675904 0 0 0 0 0 109289222.8363384 427097.1997787997 427097.1997787997 16602570.91672335 0 0 0 0 0 107841152.4443241 2895382.872157907 2895382.872157907 13606832.15636418 0 0 0 0 0 108670102.6422018 2592512.360466671 2592512.360466671 15086846.29137556 0 0 0 0 0 109145499.3999337 2738484.935421837 2738484.935421837 15286022.04051691 0 0 0 0 0 109494535.1698773 1895197.886509928 1895197.886509928 16981268.63674349 0 0 0 0 0 109983242.2727944 868133.9549724956 868133.9549724956 17731244.60993598 0 0 0 0 0 108483508.9422647 3767209.039256407 3767209.039256407 12145503.15866688 0 0 0 0 0 109384284.725836 3729446.551286791 3729446.551286791 13721412.72883544 0 0 0 0 0 109703637.7842613 2524121.05289278 2524121.05289278 16978917.09000292 0 0 0 0 0 110032549.1292729 1819681.834748014 1819681.834748014 16463162.29299745 0 0 0 0 0 110692151.344846 448025.2433829553 448025.2433829553 18308371.31468073 0 0 0 0 0 108179557.8666829 3772979.172220167 3772979.172220167 12165595.4731963 0 0 0 0 0 108963614.1932551 3727171.458925347 3727171.458925347 13742103.19969337 0 0 0 0 0 109971511.5657589 3521561.288891889 3521561.288891889 15583657.43299118 0 0 0 0 0 110494001.0096501 3512564.421911372 3512564.421911372 15556702.3594033 0 0 0 0 0 110780167.2587664 2276584.395128517 2276584.395128517 18175236.1257496 0 0 0 0 0 111517687.5834469 971713.8689131518 971713.8689131518 19436067.50794356 0 0 0 0 0 109005334.176855 4599058.422729257 4599058.422729257 10740417.89262407 0 0 0 0 0 109865836.8205145 4649072.930783858 4649072.930783858 12162721.75126065 0 0 0 0 0 110777433.2841585 4672742.356270261 4672742.356270261 13823302.8058376 0 0 0 0 0 111000218.486518 3252556.149187082 3252556.149187082 16996191.95889126 0 0 0 0 0 111524775.4996528 1904957.267645624 1904957.267645624 18355512.94464182 0 0 0 0 0 112412182.9184931 486972.0106574987 486972.0106574987 19991326.85688344 0 0 0 0 0 108573858.6609665 4406896.603017528 4406896.603017528 10436853.56674206 0 0 0 0 0 109368951.7687869 4511925.318287764 4511925.318287764 11953342.54179435 0 0 0 0 0 110290161.1137341 4500668.285426228 4500668.285426228 13560088.35208934 0 0 0 0 0 111300364.5657631 4498467.750037391 4498467.750037391 15523770.74781775 0 0 0 0 0 111902916.281655 4595589.812040165 4595589.812040165 15598741.41032281 0 0 0 0 0 112032426.4260686 3838282.459716335 3838282.459716335 18150842.54164547 0 0 0 0 0 112510928.1892321 2532061.738114314 2532061.738114314 19998208.43862798 0 0 0 0 0 113430451.0398291 1130462.949842419 1130462.949842419 21366860.96699626 0 0 0 0 0 109543063.3920474 5171567.669504615 5171567.669504615 9090931.140670262 0 0 0 0 0 110424389.2949945 5364268.415310253 5364268.415310253 10417081.63274144 0 0 0 0 0 111419921.26988 5600498.873338562 5600498.873338562 11951071.34533527 0 0 0 0 0 112602222.6589877 5676364.667491753 5676364.667491753 13406453.89425593 0 0 0 0 0 112607364.9118621 4539745.127729725 4539745.127729725 17976770.02277955 0 0 0 0 0 112607110.5158552 3587511.157570907 3587511.157570907 17085465.07512371 0 0 0 0 0 113449833.2186438 2076466.208119222 2076466.208119222 19726294.27155871 0 0 0 0 0 114607684.192001 512693.7251542949 512693.7251542949 21879358.92951381 0 0 0 0 0 108957469.8726111 4777931.265504408 4777931.265504408 8459013.475930925 0 0 0 0 0 109767334.9570251 5005272.606033735 5005272.606033735 9826707.733133543 0 0 0 0 0 110682486.8298173 5182030.734155715 5182030.734155715 11207597.42382275 0 0 0 0 0 111709384.9612096 5227531.706589765 5227531.706589765 12642626.10920662 0 0 0 0 0 113163794.6429673 5545699.004155419 5545699.004155419 15347300.29288219 0 0 0 0 0 113716402.0245576 5591013.101295955 5591013.101295955 15336727.69927016 0 0 0 0 0 113747958.2451104 4228760.462213815 4228760.462213815 20003127.54662931 0 0 0 0 0 114747171.3424486 2905420.753532602 2905420.753532602 22006315.91266159 0 0 0 0 0 115923794.259822 1357671.010231024 1357671.010231024 23568521.51061569 0 0 0 0 0 110094187.5075252 5425855.130066937 5425855.130066937 7272997.068768788 0 0 0 0 0 110921930.4316541 5730542.067078902 5730542.067078902 8360052.057611865 0 0 0 0 0 111869148.5514315 6065506.753399954 6065506.753399954 9808424.856947815 0 0 0 0 0 113144949.4832419 6543477.053684434 6543477.053684434 11394927.63179588 0 0 0 0 0 114081085.3066742 5847981.046284724 5847981.046284724 12510917.39107396 0 0 0 0 0 114164837.2154158 5126434.443636409 5126434.443636409 16334755.65252993 0 0 0 0 0 114651139.0405382 3741903.823153014 3741903.823153014 18866210.48051739 0 0 0 0 0 115909751.6000664 2348539.969401649 2348539.969401649 21573295.09981708 0 0 0 0 0 117518346.7086729 541187.6633677031 541187.6633677031 24140344.03927272 0 0 0 0 0 109296759.5692204 4860905.601297407 4860905.601297407 6376831.633216161 0 0 0 0 0 110161615.4670292 5199384.789383495 5199384.789383495 7533060.477664812 0 0 0 0 0 111056923.5781139 5571956.099849915 5571956.099849915 8897267.468470717 0 0 0 0 0 111890667.9232083 5683641.775134379 5683641.775134379 9259266.554142358 0 0 0 0 0 113324283.6642933 5915061.978740009 5915061.978740009 9886930.181699354 0 0 0 0 0 114780143.3406337 6870937.115045159 6870937.115045159 12805359.40668976 0 0 0 0 0 115471993.9091593 6748921.728308165 6748921.728308165 15491887.76699567 0 0 0 0 0 115657736.4665894 6050648.624031093 6050648.624031093 18419167.21404302 0 0 0 0 0 116116482.6536377 4673176.950001746 4673176.950001746 21771309.81492748 0 0 0 0 0 117344523.0751373 3276318.696509262 3276318.696509262 24067424.11150214 0 0 0 0 0 119198466.563726 1632453.194454969 1632453.194454969 26120957.00587475 0 0 0 0 0 110492582.0513021 5394534.664797356 5394534.664797356 5424101.033239022 0 0 0 0 0 111448924.2250158 5784058.597261093 5784058.597261093 6315626.874700571 0 0 0 0 0 112083094.750789 6015845.364425254 6015845.364425254 7179538.881545878 0 0 0 0 0 112739590.0129035 6388373.237851879 6388373.237851879 8907218.184696512 0 0 0 0 0 114596360.7152474 6908757.358350934 6908757.358350934 9750342.765676174 0 0 0 0 0 115316556.8913846 6229041.215272399 6229041.215272399 10194456.83874241 0 0 0 0 0 116054656.607473 6088672.652995616 6088672.652995616 13851178.26257019 0 0 0 0 0 116303363.5978879 5195556.776964644 5195556.776964644 17481824.43500116 0 0 0 0 0 117352043.8244587 4020428.004965551 4020428.004965551 20830091.81023951 0 0 0 0 0 119101858.7509726 2458703.172120678 2458703.172120678 23963717.45144773 0 0 0 0 0 121412190.5041459 575088.0362174717 575088.0362174717 26458123.52013112 0 0 0 0 0 109582570.2138732 4720174.024865991 4720174.024865991 4387261.697249559 0 0 0 0 0 110483329.4949493 5100477.386640063 5100477.386640063 5391950.030286146 0 0 0 0 0 111560829.1386955 5586590.413867424 5586590.413867424 6729214.70571845 0 0 0 0 0 113194723.6461754 5945377.639446445 5945377.639446445 6990606.500236447 0 0 0 0 0 114929511.0563751 6217389.486620906 6217389.486620906 7154441.061674139 0 0 0 0 0 116536535.8541224 7322212.636100586 7322212.636100586 10114175.40513171 0 0 0 0 0 117132848.2311047 7458682.199208922 7458682.199208922 13558106.15277622 0 0 0 0 0 117750523.3272496 7218635.263844276 7218635.263844276 16934036.46375765 0 0 0 0 0 118236524.3780288 6405196.215388725 6405196.215388725 20311303.40092299 0 0 0 0 0 118996925.2543182 5064457.318395375 5064457.318395375 23523751.79901795 0 0 0 0 0 120804731.4106876 3545943.434974608 3545943.434974608 26689264.92413694 0 0 0 0 0 123856580.0148354 2094181.147383311 2094181.147383311 28869414.43074917 0 0 0 0 0 110880476.9621786 5086010.526764668 5086010.526764668 3625731.825664354 0 0 0 0 0 111767097.4655113 5521138.640616397 5521138.640616397 4217007.726103751 0 0 0 0 0 112809389.8566408 6037631.219678888 6037631.219678888 5342077.860118902 0 0 0 0 0 114107768.2291891 6529252.362609393 6529252.362609393 6891630.306246984 0 0 0 0 0 115917511.72508 6824978.614560791 6824978.614560791 7186154.117976456 0 0 0 0 0 117074262.0039856 6415116.764638291 6415116.764638291 7213101.043690472 0 0 0 0 0 117780518.2534436 6531938.071075654 6531938.071075654 10825966.7634666 0 0 0 0 0 118493178.0980121 6226441.12986622 6226441.12986622 14898069.73512574 0 0 0 0 0 119334250.0828682 5323771.821450164 5323771.821450164 19038425.29513809 0 0 0 0 0 120946202.8643177 4153275.321236944 4153275.321236944 23100183.25024981 0 0 0 0 0 123441339.9196581 2873268.713815474 2873268.713815474 25905988.67201179 0 0 0 0 0 126492380.2613877 513619.6592892645 513619.6592892645 28880740.62256318 0 0 0 0 0 109735711.7368746 4306063.38835499 4306063.38835499 2406297.644721128 0 0 0 0 0 110747188.7771109 4720604.657748093 4720604.657748093 3145811.543948166 0 0 0 0 0 111806384.8455803 5326990.048738883 5326990.048738883 4552579.338503526 0 0 0 0 0 112750453.5880031 5550538.210400575 5550538.210400575 4626608.580592906 0 0 0 0 0 114418180.3436126 5790046.294282671 5790046.294282671 4438529.855357339 0 0 0 0 0 116410845.5326689 5947269.835175478 5947269.835175478 4148141.251547302 0 0 0 0 0 118948161.8364045 7710417.604337681 7710417.604337681 10697678.22992047 0 0 0 0 0 118047122.5150551 7088460.072097115 7088460.072097115 7218922.342741797 0 0 0 0 0 119831082.532516 7936755.203782391 7936755.203782391 14594278.75667349 0 0 0 0 0 120706312.0104034 7674678.763783582 7674678.763783582 18517623.37358537 0 0 0 0 0 121711476.8168777 6768259.500275798 6768259.500275798 22206376.06790671 0 0 0 0 0 122787540.9294255 5283695.951427272 5283695.951427272 25669124.84129345 0 0 0 0 0 125088786.2893223 3820209.21481821 3820209.21481821 30004973.42617403 0 0 0 0 0 129453107.9904369 2607681.405482386 2607681.405482386 31668638.42250581 0 0 0 0 0 110946712.4416199 4593224.924660733 4593224.924660733 1791058.926162951 0 0 0 0 0 111956704.9934091 5074183.820591868 5074183.820591868 2484165.123484986 0 0 0 0 0 112760045.4043647 5305085.273457577 5305085.273457577 2647878.094294694 0 0 0 0 0 113662516.3459139 5893874.783162145 5893874.783162145 4632007.485735952 0 0 0 0 0 115228328.1275045 6086348.384196368 6086348.384196368 4539500.363029901 0 0 0 0 0 117048543.4617831 6202426.999640875 6202426.999640875 4228508.457287795 0 0 0 0 0 119724382.2370129 6496283.211262531 6496283.211262531 7202471.587719162 0 0 0 0 0 118736063.500531 5940283.403836737 5940283.403836737 3682023.02291696 0 0 0 0 0 120728977.0199272 6658664.763477338 6658664.763477338 11379401.36954244 0 0 0 0 0 121851588.768505 6275414.100061794 6275414.100061794 16053410.01727771 0 0 0 0 0 123281506.7104332 5226251.474999856 5226251.474999856 20954082.3237858 0 0 0 0 0 125465925.5486651 3908165.529366684 3908165.529366684 25382155.99768446 0 0 0 0 0 128552522.5948833 4986003.246058519 4986003.246058519 26641025.07015882 0 0 0 0 0 133326111.7384031 -128749.2714257406 -128749.2714257406 32375485.80474228 0 0 0 0 0 109744392.4983467 3745838.955531854 3745838.955531854 517877.048241069 0 0 0 0 0 110675878.3307001 4223868.520386671 4223868.520386671 1317961.713844219 0 0 0 0 0 111887329.4093572 4491088.42743328 4491088.42743328 1024812.455264811 0 0 0 0 0 112826697.6749813 5135510.761427001 5135510.761427001 2710022.807995845 0 0 0 0 0 114097282.8298604 5285603.922484679 5285603.922484679 2255415.823508882 0 0 0 0 0 115742896.0785718 5276628.771937482 5276628.771937482 1671818.184080375 0 0 0 0 0 117781307.6582616 5138891.347471785 5138891.347471785 900577.8191717697 0 0 0 0 0 120489739.6962908 7184543.025228487 7184543.025228487 7146540.874556374 0 0 0 0 0 121792117.7216181 7945396.413771287 7945396.413771287 11173077.99853241 0 0 0 0 0 119169902.9930523 6137345.45741451 6137345.45741451 3727567.167654109 0 0 0 0 0 123101461.7714413 8270441.880729199 8270441.880729199 15624123.1841813 0 0 0 0 0 124506146.1299631 7985991.325078229 7985991.325078229 20227473.82977247 0 0 0 0 0 126022448.3799758 6894775.624897373 6894775.624897373 24635376.39200199 0 0 0 0 0 129959518.7038888 3030394.782763647 3030394.782763647 28701367.28974985 0 0 0 0 0 138739467.0969801 2718829.742490347 2718829.742490347 34092525.470128 0 0 0 0 0 135483389.5629432 5231982.298944918 5231982.298944918 30976970.0352107 0 0 0 0 0 110854351.3530691 3910018.362384153 3910018.362384153 386970.0379210968 0 0 0 0 0 111878515.7912681 4152029.932970245 4152029.932970245 105069.0755180187 0 0 0 0 0 112312594.4814082 4442255.277667327 4442255.277667327 1162857.174794859 0 0 0 0 0 113400006.9187202 4556518.623781679 4556518.623781679 410520.5512604859 0 0 0 0 0 114362180.6066059 5230590.441418667 5230590.441418667 2350945.251962125 0 0 0 0 0 115999102.4514824 5195238.212877249 5195238.212877249 1774288.364134944 0 0 0 0 0 117761144.9907616 4949509.461588764 4949509.461588764 960753.5652436088 0 0 0 0 0 121470942.5639626 5691632.156958357 5691632.156958357 3070485.98559349 0 0 0 0 0 122891628.960283 6333273.026651021 6333273.026651021 7088314.11466986 0 0 0 0 0 120070120.6178894 4741082.524332139 4741082.524332139 -79742.64518035694 0 0 0 0 0 124423888.5265166 6507085.983464743 6507085.983464743 11898255.81081129 0 0 0 0 0 126175082.1977057 6026387.651413741 6026387.651413741 17329336.86429181 0 0 0 0 0 128195461.7580718 4873586.944374184 4873586.944374184 22966986.08107845 0 0 0 0 0 132208535.9727334 7055095.19760159 7055095.19760159 26928428.97729532 0 0 0 0 0 143829573.7996246 -1146635.476279902 -1146635.476279902 34384914.01975198 0 0 0 0 0 138647917.0894175 1221758.913596778 1221758.913596778 30667269.98320628 0 0 0 0 0 109692031.813803 3131377.655218684 3131377.655218684 -934304.6624587501 0 0 0 0 0 110717023.4979782 3262361.440898457 3262361.440898457 -1121259.738743765 0 0 0 0 0 111295