<?xml version="1.0"?>
<VTKFile type="UnstructuredGrid" version="2.2">
  <UnstructuredGrid>
    <Piece NumberOfPoints="750" NumberOfCells="250">
      <Points>
        <DataArray type="Float64" NumberOfComponents="3" format="ascii">0.100000000000416 1 0 9.542080092254412e-18 1 0 0.07242270094929616 0.9287161546587119 0 1.560150154043339e-18 1 0 -1.560150154043339e-18 0.9042857142860056 0 0.07242270094929616 0.9287161546587119 0 0.1504496488130522 0.920529655141281 0 0.100000000000416 1 0 0.07242270094929615 0.9287161546587119 0 1.560150154043339e-18 0.9042857142860055 0 0.08949214017397381 0.8499193320747834 0 0.07242270094929616 0.9287161546587119 0 0.2000000000008322 1 0 0.100000000000416 1 0 0.1504496488130522 0.9205296551412809 0 0.08949214017397381 0.8499193320747833 0 0.1504496488130522 0.9205296551412812 0 0.07242270094929615 0.9287161546587119 0 1.927864805481964e-18 0.9042857142860055 0 -1.927864805481964e-18 0.808571428572008 0 0.08949214017397381 0.8499193320747832 0 0.2000000000008322 1 0 0.1504496488130522 0.9205296551412812 0 0.2499721953899355 0.9185928771799158 0 0.1985034546041365 0.8442209309262434 0 0.1504496488130522 0.9205296551412812 0 0.08949214017397379 0.8499193320747832 0 1.927864805481964e-18 0.8085714285720079 0 0.07981914983884167 0.7551853746230651 0 0.08949214017397381 0.8499193320747832 0 0.3000000000012483 1 0 0.2000000000008322 1 0 0.2499721953899355 0.9185928771799158 0 0.2499721953899355 0.9185928771799159 0 0.1504496488130522 0.9205296551412812 0 0.1985034546041365 0.8442209309262433 0 0.1985034546041365 0.8442209309262434 0 0.08949214017397383 0.8499193320747834 0 0.1647172437488297 0.7772037251192008 0 1.719486532321706e-18 0.8085714285720079 0 -1.719486532321706e-18 0.7128571428580416 0 0.07981914983884167 0.7551853746230649 0 0.08949214017397381 0.8499193320747833 0 0.07981914983884168 0.7551853746230651 0 0.1647172437488297 0.7772037251192008 0 0.3498228780409011 0.9196059643157828 0 0.3000000000012484 1 0 0.2499721953899355 0.9185928771799158 0 0.2499721953899355 0.9185928771799159 0 0.1985034546041365 0.8442209309262435 0 0.2982782210027112 0.8494663949677288 0 0.1985034546041365 0.8442209309262434 0 0.1647172437488297 0.777203725119201 0 0.2569918719072125 0.7888812511490499 0 0.07981914983884167 0.755185374623065 0 7.1538221068411e-18 0.7128571428580416 0 0.07928054189815228 0.6639934880868407 0 0.07981914983884167 0.755185374623065 0 0.1576018681684929 0.6958879033414609 0 0.1647172437488297 0.7772037251192008 0 0.4000000000016644 1 0 0.3000000000012484 1 0 0.3498228780409011 0.9196059643157827 0 0.3498228780409011 0.9196059643157828 0 0.2499721953899355 0.918592877179916 0 0.2982782210027111 0.8494663949677288 0 0.2982782210027112 0.8494663949677289 0 0.1985034546041365 0.8442209309262435 0 0.2569918719072125 0.7888812511490499 0 0.1647172437488297 0.7772037251192009 0 0.2419461962682328 0.7223495853541094 0 0.2569918719072125 0.7888812511490499 0 1.707883688867638e-18 0.7128571428580415 0 -1.707883688867638e-18 0.6171428571437531 0 0.07928054189815228 0.6639934880868407 0 0.07981914983884167 0.755185374623065 0 0.0792805418981523 0.6639934880868409 0 0.1576018681684929 0.6958879033414607 0 0.1576018681684929 0.6958879033414608 0 0.2419461962682328 0.7223495853541094 0 0.1647172437488297 0.7772037251192008 0 0.4000000000016644 1 0 0.3498228780409012 0.9196059643157829 0 0.4518775995084198 0.9201756490083463 0 0.3498228780409011 0.9196059643157828 0 0.2982782210027112 0.849466394967729 0 0.3974942312260538 0.8548415168737088 0 0.334473259867368 0.7636851317483528 0 0.2982782210027112 0.849466394967729 0 0.2569918719072125 0.7888812511490499 0 0.2419461962682328 0.7223495853541093 0 0.334473259867368 0.763685131748353 0 0.2569918719072125 0.7888812511490499 0 1.707883688867638e-18 0.6171428571437529 0 0.07947867006665031 0.569287927425995 0 0.07928054189815228 0.6639934880868407 0 0.1576018681684929 0.6958879033414608 0 0.0792805418981523 0.6639934880868409 0 0.1512795608247463 0.6093594627734519 0 0.1576018681684929 0.6958879033414608 0 0.2341354436318248 0.6391200624061725 0 0.2419461962682328 0.7223495853541092 0 0.5000000000020587 1 0 0.4000000000016645 1 0 0.4518775995084198 0.9201756490083463 0 0.4518775995084199 0.9201756490083464 0 0.3498228780409012 0.9196059643157829 0 0.3974942312260538 0.8548415168737088 0 0.2982782210027112 0.8494663949677289 0 0.334473259867368 0.763685131748353 0 0.3974942312260538 0.8548415168737088 0 0.318778831313966 0.6664952828410462 0 0.334473259867368 0.763685131748353 0 0.2419461962682328 0.7223495853541092 0 1.712151821491122e-18 0.6171428571437529 0 -1.712151821491122e-18 0.5214285714291635 0 0.07947867006665031 0.5692879274259948 0 0.07928054189815228 0.6639934880868408 0 0.07947867006665033 0.569287927425995 0 0.1512795608247463 0.6093594627734519 0 0.2341354436318248 0.6391200624061724 0 0.1576018681684929 0.6958879033414609 0 0.1512795608247463 0.6093594627734519 0 0.2341354436318248 0.6391200624061724 0 0.318778831313966 0.6664952828410463 0 0.2419461962682328 0.7223495853541092 0 0.5501260307078503 0.9157080124274182 0 0.5000000000020588 1 0 0.4518775995084198 0.9201756490083463 0 0.4982783550718213 0.828329071072998 0 0.4518775995084199 0.9201756490083465 0 0.3974942312260538 0.8548415168737088 0 0.334473259867368 0.7636851317483528 0 0.4270018182274792 0.774845510303258 0 0.3974942312260538 0.8548415168737088 0 0.4034544631785332 0.6976365327000738 0 0.334473259867368 0.763685131748353 0 0.3187788313139659 0.6664952828410461 0 0.07947867006665031 0.5692879274259949 0 7.199699001926701e-18 0.5214285714291635 0 0.07539619258341246 0.4768398233222965 0 0.1512795608247463 0.609359462773452 0 0.07947867006665033 0.569287927425995 0 0.1430235002041239 0.5157881957117131 0 0.2175071670521008 0.5477913784569416 0 0.2341354436318248 0.6391200624061725 0 0.1512795608247463 0.6093594627734519 0 0.2341354436318248 0.6391200624061724 0 0.3009805024027954 0.574124405453795 0 0.3187788313139659 0.6664952828410461 0 0.6000000000013869 1 0 0.5000000000020588 1 0 0.5501260307078502 0.9157080124274181 0 0.5501260307078503 0.9157080124274182 0 0.4518775995084199 0.9201756490083465 0 0.4982783550718212 0.8283290710729979 0 0.4270018182274792 0.7748455103032579 0 0.4982783550718213 0.8283290710729981 0 0.3974942312260538 0.8548415168737088 0 0.4034544631785332 0.6976365327000738 0 0.4270018182274792 0.774845510303258 0 0.3344732598673679 0.7636851317483527 0 0.3874961043363944 0.6045058593620658 0 0.4034544631785332 0.6976365327000739 0 0.3187788313139659 0.6664952828410461 0 1.624205945531439e-18 0.5214285714291634 0 -1.624205945531439e-18 0.4257142857145927 0 0.07539619258341246 0.4768398233222965 0 0.07947867006665031 0.5692879274259949 0 0.07539619258341247 0.4768398233222966 0 0.1430235002041239 0.5157881957117131 0 0.2175071670521008 0.5477913784569416 0 0.1512795608247463 0.6093594627734521 0 0.1430235002041239 0.5157881957117131 0 0.2175071670521008 0.5477913784569416 0 0.3009805024027954 0.574124405453795 0 0.2341354436318248 0.6391200624061723 0 0.3009805024027954 0.5741244054537948 0 0.3874961043363945 0.6045058593620659 0 0.3187788313139659 0.6664952828410461 0 0.6000000000013869 1 0 0.5501260307078504 0.9157080124274183 0 0.6547996067305861 0.9007657125087726 0 0.5501260307078503 0.9157080124274182 0 0.4982783550718213 0.8283290710729981 0 0.5904037090299777 0.8429143001748771 0 0.4270018182274792 0.7748455103032579 0 0.4913158036241169 0.7286208351528236 0 0.4982783550718212 0.8283290710729979 0 0.4034544631785332 0.6976365327000738 0 0.4913158036241169 0.7286208351528236 0 0.4270018182274791 0.7748455103032578 0 0.4745187976266661 0.6356120108154575 0 0.4034544631785332 0.6976365327000739 0 0.3874961043363944 0.6045058593620657 0 0.07539619258341246 0.4768398233222965 0 6.643433168181237e-18 0.4257142857145927 0 0.0801784059973176 0.3963300372632158 0 0.1430235002041239 0.5157881957117132 0 0.07539619258341247 0.4768398233222966 0 0.1336105784902603 0.4361702689152495 0 0.2005261160939736 0.4579553459022219 0 0.2175071670521008 0.5477913784569416 0 0.1430235002041239 0.5157881957117131 0 0.2845914509445011 0.4848763822704991 0 0.3009805024027954 0.5741244054537948 0 0.2175071670521008 0.5477913784569415 0 0.3009805024027954 0.5741244054537948 0 0.370652546593246 0.5134749221234859 0 0.3874961043363944 0.6045058593620657 0 0.7000000000006934 1 0 0.600000000001387 1 0 0.6547996067305861 0.9007657125087726 0 0.6547996067305862 0.9007657125087727 0 0.5501260307078504 0.9157080124274183 0 0.5904037090299777 0.8429143001748771 0 0.4982783550718213 0.828329071072998 0 0.5766230053207846 0.7565871944151591 0 0.5904037090299777 0.8429143001748771 0 0.4982783550718213 0.828329071072998 0 0.4913158036241169 0.7286208351528236 0 0.5766230053207846 0.7565871944151589 0 0.4745187976266661 0.6356120108154575 0 0.4913158036241169 0.7286208351528236 0 0.4034544631785331 0.6976365327000736 0 0.4575639698313757 0.5427700263992947 0 0.4745187976266662 0.6356120108154576 0 0.3874961043363944 0.6045058593620657 0 1.72722572933646e-18 0.4257142857145927 0 -1.72722572933646e-18 0.3300000000000001 0 0.0801784059973176 0.3963300372632158 0 0.07539619258341246 0.4768398233222965 0 0.08017840599731761 0.3963300372632159 0 0.1336105784902603 0.4361702689152495 0 0.2005261160939736 0.4579553459022219 0 0.1430235002041239 0.5157881957117132 0 0.1336105784902603 0.4361702689152495 0 0.2845914509445011 0.4848763822704991 0 0.2175071670521008 0.5477913784569416 0 0.2005261160939736 0.4579553459022219 0 0.2845914509445011 0.4848763822704991 0 0.370652546593246 0.5134749221234858 0 0.3009805024027953 0.5741244054537948 0 0.370652546593246 0.5134749221234858 0 0.4575639698313758 0.5427700263992948 0 0.3874961043363944 0.6045058593620657 0 0.7543567317552734 0.9205245603072643 0 0.7000000000006935 1 0 0.6547996067305861 0.9007657125087726 0 0.6561937267356622 0.795248704204671 0 0.6547996067305863 0.9007657125087728 0 0.5904037090299777 0.8429143001748771 0 0.
[...]
      <CellData>
        <DataArray type="UInt8" Name="vtkGhostType" format="ascii" RangeMin="0" RangeMax="1">0 0 0 0 0 0 0 0 0 0 0 0 0 0 0 0 0 0 0 0 0 0 0 0 0 0 0 0 0 0 0 0 0 0 0 0 0 0 0 0 0 0 0 0 0 0 0 0 0 0 0 0 0 0 0 0 0 0 0 0 0 0 0 0 0 0 0 0 0 0 0 0 0 0 0 0 0 0 0 0 0 0 0 0 0 0 0 0 0 0 0 0 0 0 0 0 0 0 0 0 0 0 0 0 0 0 0 0 0 0 0 0 0 0 0 0 0 0 0 0 0 0 0 0 0 0 0 0 0 0 0 0 0 0 0 0 0 0 0 0 0 0 0 0 0 0 0 0 0 0 0 0 0 0 0 0 0 0 0 0 0 0 0 0 0 0 0 0 0 0 0 0 0 0 0 0 0 0 0 0 0 0 0 0 0 0 0 0 0 0 0 0 0 0 0 0 0 0 0 0 0 0 0 0 0 0 0 0 0 0 0 0 0 0 0 0 0 0 0 0 0 0 0 0 0 0 0 0 0 0 0 0 0 0 0 0 0 0 0 0 0 0 0 0 0 0 0 0 0 0 </DataArray>
        <DataArray type="Int64" IdType="1" Name="vtkOriginalCellIds" format="ascii" RangeMin="0" RangeMax="249">0 1 2 3 4 5 6 7 8 9 10 11 12 13 14 15 16 17 18 19 20 21 22 23 24 25 26 27 28 29 30 31 32 33 34 35 36 37 38 39 40 41 42 43 44 45 46 47 48 49 50 51 52 53 54 55 56 57 58 59 60 61 62 63 64 65 66 67 68 69 70 71 72 73 74 75 76 77 78 79 80 81 82 83 84 85 86 87 88 89 90 91 92 93 94 95 96 97 98 99 100 101 102 103 104 105 106 107 108 109 110 111 112 113 114 115 116 117 118 119 120 121 122 123 124 125 126 127 128 129 130 131 132 133 134 135 136 137 138 139 140 141 142 143 144 145 146 147 148 149 150 151 152 153 154 155 156 157 158 159 160 161 162 163 164 165 166 167 168 169 170 171 172 173 174 175 176 177 178 179 180 181 182 183 184 185 186 187 188 189 190 191 192 193 194 195 196 197 198 199 200 201 202 203 204 205 206 207 208 209 210 211 212 213 214 215 216 217 218 219 220 221 222 223 224 225 226 227 228 229 230 231 232 233 234 235 236 237 238 239 240 241 242 243 244 245 246 247 248 249 </DataArray>
      </CellData>
      <PointData Tensors="stress">
        <DataArray type="Int64" IdType="1" Name="vtkOriginalPointIds" format="ascii" RangeMin="0" RangeMax="749">0 1 2 3 4 5 6 7 8 9 10 11 12 13 14 15 16 17 18 19 20 21 22 23 24 25 26 27 28 29 30 31 32 33 34 35 36 37 38 39 40 41 42 43 44 45 46 47 48 49 50 51 52 53 54 55 56 57 58 59 60 61 62 63 64 65 66 67 68 69 70 71 72 73 74 75 76 77 78 79 80 81 82 83 84 85 86 87 88 89 90 91 92 93 94 95 96 97 98 99 100 101 102 103 104 105 106 107 108 109 110 111 112 113 114 115 116 117 118 119 120 121 122 123 124 125 126 127 128 129 130 131 132 133 134 135 136 137 138 139 140 141 142 143 144 145 146 147 148 149 150 151 152 153 154 155 156 157 158 159 160 161 162 163 164 165 166 167 168 169 170 171 172 173 174 175 176 177 178 179 180 181 182 183 184 185 186 187 188 189 190 191 192 193 194 195 196 197 198 199 200 201 202 203 204 205 206 207 208 209 210 211 212 213 214 215 216 217 218 219 220 221 222 223 224 225 226 227 228 229 230 231 232 233 234 235 236 237 238 239 240 241 242 243 244 245 246 247 248 249 250 251 252 253 254 255 256 257 258 259 260 261 262 263 264 265 266 267 268 269 270 271 272 273 274 275 276 277 278 279 280 281 282 283 284 285 286 287 288 289 290 291 292 293 294 295 296 297 298 299 300 301 302 303 304 305 306 307 308 309 310 311 312 313 314 315 316 317 318 319 320 321 322 323 324 325 326 327 328 329 330 331 332 333 334 335 336 337 338 339 340 341 342 343 344 345 346 347 348 349 350 351 352 353 354 355 356 357 358 359 360 361 362 363 364 365 366 367 368 369 370 371 372 373 374 375 376 377 378 379 380 381 382 383 384 385 386 387 388 389 390 391 392 393 394 395 396 397 398 399 400 401 402 403 404 405 406 407 408 409 410 411 412 413 414 415 416 417 418 419 420 421 422 423 424 425 426 427 428 429 430 431 432 433 434 435 436 437 438 439 440 441 442 443 444 445 446 447 448 449 450 451 452 453 454 455 456 457 458 459 460 461 462 463 464 465 466 467 468 469 470 471 472 473 474 475 476 477 478 479 480 481 482 483 484 485 486 487 488 489 490 491 492 493 494 495 496 497 498 499 500 501 502 503 504 505 506 507 508 509 510 511 512 513 514 515 516 517 518 519 520 521 522 523 524 525 526 527 528 529 530 531 532 533 534 535 536 537 538 539 540 541 542 543 544 545 546 547 548 549 550 551 552 553 554 555 556 557 558 559 560 561 562 563 564 565 566 567 568 569 570 571 572 573 574 575 576 577 578 579 580 581 582 583 584 585 586 587 588 589 590 591 592 593 594 595 596 597 598 599 600 601 602 603 604 605 606 607 608 609 610 611 612 613 614 615 616 617 618 619 620 621 622 623 624 625 626 627 628 629 630 631 632 633 634 635 636 637 638 639 640 641 642 643 644 645 646 647 648 649 650 651 652 653 654 655 656 657 658 659 660 661 662 663 664 665 666 667 668 669 670 671 672 673 674 675 676 677 678 679 680 681 682 683 684 685 686 687 688 689 690 691 692 693 694 695 696 697 698 699 700 701 702 703 704 705 706 707 708 709 710 711 712 713 714 715 716 717 718 719 720 721 722 723 724 725 726 727 728 729 730 731 732 733 734 735 736 737 738 739 740 741 742 743 744 745 746 747 748 749 </DataArray>
        <DataArray type="UInt8" Name="vtkGhostType" format="ascii" RangeMin="0" RangeMax="0">0 0 0 0 0 0 0 0 0 0 0 0 0 0 0 0 0 0 0 0 0 0 0 0 0 0 0 0 0 0 0 0 0 0 0 0 0 0 0 0 0 0 0 0 0 0 0 0 0 0 0 0 0 0 0 0 0 0 0 0 0 0 0 0 0 0 0 0 0 0 0 0 0 0 0 0 0 0 0 0 0 0 0 0 0 0 0 0 0 0 0 0 0 0 0 0 0 0 0 0 0 0 0 0 0 0 0 0 0 0 0 0 0 0 0 0 0 0 0 0 0 0 0 0 0 0 0 0 0 0 0 0 0 0 0 0 0 0 0 0 0 0 0 0 0 0 0 0 0 0 0 0 0 0 0 0 0 0 0 0 0 0 0 0 0 0 0 0 0 0 0 0 0 0 0 0 0 0 0 0 0 0 0 0 0 0 0 0 0 0 0 0 0 0 0 0 0 0 0 0 0 0 0 0 0 0 0 0 0 0 0 0 0 0 0 0 0 0 0 0 0 0 0 0 0 0 0 0 0 0 0 0 0 0 0 0 0 0 0 0 0 0 0 0 0 0 0 0 0 0 0 0 0 0 0 0 0 0 0 0 0 0 0 0 0 0 0 0 0 0 0 0 0 0 0 0 0 0 0 0 0 0 0 0 0 0 0 0 0 0 0 0 0 0 0 0 0 0 0 0 0 0 0 0 0 0 0 0 0 0 0 0 0 0 0 0 0 0 0 0 0 0 0 0 0 0 0 0 0 0 0 0 0 0 0 0 0 0 0 0 0 0 0 0 0 0 0 0 0 0 0 0 0 0 0 0 0 0 0 0 0 0 0 0 0 0 0 0 0 0 0 0 0 0 0 0 0 0 0 0 0 0 0 0 0 0 0 0 0 0 0 0 0 0 0 0 0 0 0 0 0 0 0 0 0 0 0 0 0 0 0 0 0 0 0 0 0 0 0 0 0 0 0 0 0 0 0 0 0 0 0 0 0 0 0 0 0 0 0 0 0 0 0 0 0 0 0 0 0 0 0 0 0 0 0 0 0 0 0 0 0 0 0 0 0 0 0 0 0 0 0 0 0 0 0 0 0 0 0 0 0 0 0 0 0 0 0 0 0 0 0 0 0 0 0 0 0 0 0 0 0 0 0 0 0 0 0 0 0 0 0 0 0 0 0 0 0 0 0 0 0 0 0 0 0 0 0 0 0 0 0 0 0 0 0 0 0 0 0 0 0 0 0 0 0 0 0 0 0 0 0 0 0 0 0 0 0 0 0 0 0 0 0 0 0 0 0 0 0 0 0 0 0 0 0 0 0 0 0 0 0 0 0 0 0 0 0 0 0 0 0 0 0 0 0 0 0 0 0 0 0 0 0 0 0 0 0 0 0 0 0 0 0 0 0 0 0 0 0 0 0 0 0 0 0 0 0 0 0 0 0 0 0 0 0 0 0 0 0 0 0 0 0 0 0 0 0 0 0 0 0 0 0 0 0 0 0 0 0 0 0 0 0 0 0 0 0 0 0 0 0 0 0 0 0 0 0 0 0 0 0 0 0 0 0 0 0 0 0 0 0 0 0 0 0 0 0 0 0 0 0 0 0 0 0 0 0 0 0 0 0 0 0 0 0 0 0 0 0 0 0 0 0 0 0 0 0 0 0 0 0 0 0 0 0 0 0 0 0 0 0 0 0 0 0 0 0 0 0 0 </DataArray>
        <DataArray type="Float64" Name="stress" format="ascii" NumberOfComponents="9">107367907.9073296 2457062.684057864 2457062.684057864 13402135.12222914 0 0 0 0 0 107167133.0694989 23403.01002956149 23403.01002956149 14689851.67398272 0 0 0 0 0 108721289.4213163 2081412.260575394 2081412.260575394 15733913.05761187 0 0 0 0 0 107034743.944429 -114264.048902749 -114264.048902749 14303495.11174696 0 0 0 0 0 109177723.8892592 27160.97734443905 27160.97734443905 16994036.59822073 0 0 0 0 0 108820938.5721179 2201081.209111103 2201081.209111103 16086126.56881646 0 0 0 0 0 109636772.9448346 4173173.405071691 4173173.405071691 14100007.85036948 0 0 0 0 0 107335059.9731217 2385308.276970561 2385308.276970561 13472532.02464683 0 0 0 0 0 108853009.1226744 2197759.419988619 2197759.419988619 15632116.48040122 0 0 0 0 0 109322407.8611391 3557.278477659792 3557.278477659792 17633338.56764855 0 0 0 0 0 111044345.6514385 3087463.306056171 3087463.306056171 17642812.44565022 0 0 0 0 0 108751876.3250315 2191004.469435243 2191004.469435243 15680436.7518464 0 0 0 0 0 108145764.3895242 4304796.85814143 4304796.85814143 10768323.1704346 0 0 0 0 0 107481915.3390984 2512430.74935305 2512430.74935305 13694002.51774324 0 0 0 0 0 109531059.1173825 4092874.645496473 4092874.645496473 13961630.15427412 0 0 0 0 0 111096411.4164086 3248337.49808319 3248337.49808319 17748079.62903928 0 0 0 0 0 109556026.88695 4138757.231432226 4138757.231432226 13854011.28509879 0 0 0 0 0 108864791.8143253 2171013.131266336 2171013.131266336 15698000.22086518 0 0 0 0 0 109066900.6862662 -165170.0669204572 -165170.0669204572 17064428.60400186 0 0 0 0 0 112222263.4937498 169694.2230388904 169694.2230388904 20507639.60848062 0 0 0 0 0 111254093.3606449 3235363.372480351 3235363.372480351 18324625.28945209 0 0 0 0 0 108111210.356746 4211527.808315758 4211527.808315758 10942957.87613653 0 0 0 0 0 109552942.0985571 4234212.355339382 4234212.355339382 13700055.43645937 0 0 0 0 0 110799732.6993023 5695181.241193888 5695181.241193888 10188475.31592547 0 0 0 0 0 112659066.0418615 6025716.26040102 6025716.26040102 13618892.74018731 0 0 0 0 0 109485965.8965021 4127426.703751064 4127426.703751064 13926947.24413579 0 0 0 0 0 111107273.2720751 3281340.382532908 3281340.382532908 17646441.31518703 0 0 0 0 0 112434993.3744164 66576.06374273928 66576.06374273928 21377089.02601949 0 0 0 0 0 114969919.061411 3409953.448688262 3409953.448688262 21277842.62212171 0 0 0 0 0 111043302.4747131 3343163.030910367 3343163.030910367 17541141.38395321 0 0 0 0 0 109078845.1221486 5108758.48475406 5108758.48475406 7235325.576193213 0 0 0 0 0 108316408.9595766 4368117.483761781 4368117.483761781 11206959.96020308 0 0 0 0 0 110571961.3598759 5503332.488439838 5503332.488439838 9862981.545932217 0 0 0 0 0 110629376.6811068 5634371.277507539 5634371.277507539 9630237.892055916 0 0 0 0 0 109722576.7715044 4316437.232205207 4316437.232205207 14252269.21958917 0 0 0 0 0 112412491.6139033 5770383.183337815 5770383.183337815 13171410.09756456 0 0 0 0 0 112456179.4217146 5950183.154188965 5950183.154188965 12971480.79794096 0 0 0 0 0 111349419.3803324 3362237.31235716 3362237.31235716 18423360.53360307 0 0 0 0 0 114718465.2001106 5927279.080761277 5927279.080761277 16348324.06164195 0 0 0 0 0 112103911.204622 -172102.9455839336 -172102.9455839336 20505606.08288533 0 0 0 0 0 117202135.6996795 210779.342070846 210779.342070846 24899095.93055806 0 0 0 0 0 115248131.2857081 3627971.711540174 3627971.711540174 22216149.20186561 0 0 0 0 0 110932348.0499184 3032844.111816856 3032844.111816856 17591552.34393306 0 0 0 0 0 115133397.6590937 3753471.074635742 3753471.074635742 21233847.85077998 0 0 0 0 0 115028662.0281893 6188401.265353952 6188401.265353952 17030907.04718627 0 0 0 0 0 111619125.732481 5703927.220093298 5703927.220093298 5510955.359629521 0 0 0 0 0 109004877.0765558 5015170.347935294 5015170.347935294 7410445.462140824 0 0 0 0 0 110674218.5176522 5632519.195665828 5632519.195665828 9621237.019232206 0 0 0 0 0 110572547.98988 5534443.385218321 5534443.385218321 9852082.149386622 0 0 0 0 0 112496835.388601 5914650.10290125 5914650.10290125 12850650.77716397 0 0 0 0 0 113498683.7010261 6474504.972079504 6474504.972079504 7885406.931155612 0 0 0 0 0 112392692.8200162 5800438.707850625 5800438.707850625 13180812.14513993 0 0 0 0 0 114991331.5257102 6176277.269637743 6176277.269637743 16008545.64139033 0 0 0 0 0 115524121.3966662 7036662.036171731 7036662.036171731 10470519.56665251 0 0 0 0 0 114937375.2817367 3822190.608726576 3822190.608726576 21324099.58047524 0 0 0 0 0 117449843.7550302 61652.00242673392 61652.00242673392 26027709.38236297 0 0 0 0 0 121236030.7522418 4087093.823660802 4087093.823660802 25274602.35565708 0 0 0 0 0 115341078.5017846 3786677.034613866 3786677.034613866 22204389.0798611 0 0 0 0 0 119402675.5576283 6653733.929475468 6653733.929475468 18567857.05445448 0 0 0 0 0 114851201.0421848 6159317.85587928 6159317.85587928 16199535.27806648 0 0 0 0 0 109782617.1678019 4856001.840291697 4856001.840291697 3582948.834557493 0 0 0 0 0 109245357.0278253 5173878.716105017 5173878.716105017 7676625.870916273 0 0 0 0 0 111356067.8266686 5514071.509608205 5514071.509608205 5190196.566377888 0 0 0 0 0 111457709.6398178 5619644.820600396 5619644.820600396 4965319.969626401 0 0 0 0 0 110843866.7056029 5723618.005768833 5723618.005768833 10194920.88583158 0 0 0 0 0 113214959.6322623 6243054.649945699 6243054.649945699 7455310.791938891 0 0 0 0 0 113306152.6309053 6406222.016122036 6406222.016122036 7206804.843056798 0 0 0 0 0 112721758.1792087 6012188.46828066 6012188.46828066 13651592.59862493 0 0 0 0 0 115284857.0070426 6825884.049599219 6825884.049599219 9893405.562817892 0 0 0 0 0 115200723.1042578 6246115.446264001 6246115.446264001 16823254.2745502 0 0 0 0 0 118542074.0080446 7401225.668326566 7401225.668326566 11061909.0690048 0 0 0 0 0 115365463.4084405 6972551.850700101 6972551.850700101 9840238.324748382 0 0 0 0 0 117027380.6490435 -224576.8123874638 -224576.8123874638 24971565.09049537 0 0 0 0 0 125764355.1726673 333832.2465314216 333832.2465314216 30341172.90427788 0 0 0 0 0 121490910.6249644 4289657.502034068 4289657.502034068 26511200.00573597 0 0 0 0 0 114902205.6100435 3478242.088678482 3478242.088678482 21318831.66765045 0 0 0 0 0 121349287.3465184 4529789.55844048 4529789.55844048 25301777.4470805 0 0 0 0 0 119699448.230573 6897350.546073505 6897350.546073505 19413752.45403407 0 0 0 0 0 119631928.5647145 6992084.723137697 6992084.723137697 18557877.28070825 0 0 0 0 0 118708678.1054419 7529264.207575702 7529264.207575702 11526774.03906487 0 0 0 0 0 114841833.3030749 6015451.440386762 6015451.440386762 16229596.45332005 0 0 0 0 0 109674702.7892679 4794254.263112326 4794254.263112326 3707352.845917329 0 0 0 0 0 111509951.2274223 5593532.425270045 5593532.425270045 5028582.933095734 0 0 0 0 0 111846249.0392055 4506604.668199818 4506604.668199818 1121345.082410053 0 0 0 0 0 111395593.8685173 5532547.694702527 5532547.694702527 5181706.941226105 0 0 0 0 0 113338030.7694885 6346987.372062672 6346987.372062672 7183074.486505099 0 0 0 0 0 113665282.8924426 5325546.692653658 5325546.692653658 2460090.09810279 0 0 0 0 0 117029311.1778152 6452131.996168992 6452131.996168992 4654799.121602036 0 0 0 0 0 113117468.0155361 6278780.069385525 6278780.069385525 7505193.830634674 0 0 0 0 0 115497201.2353458 6884305.342730286 6884305.342730286 9732582.977906547 0 0 0 0 0 118679775.8605063 7545036.954551833 7545036.954551833 11010836.88707856 0 0 0 0 0 116777600.9705472 6283731.36450135 6283731.36450135 4133087.79413559 0 0 0 0 0 115547839.9476572 6896546.877266559 6896546.877266559 9931716.700730592 0 0 0 0 0 126104760.1778087 88964.52554385891 88964.52554385891 31793624.91407055 0 0 0 0 0 132708620.8117766 4315094.066247527 4315094.066247527 29943023.02878822 0 0 0 0 0 120898488.6159296 4672918.597679354 4672918.597679354 25322426.31190055 0 0 0 0 0 119407860.908816 7047711.39988724 7047711.39988724 18535142.39916064 0 0 0 0 0 121540575.5741584 4477367.894551715 4477367.894551715 26242901.4021065 0 0 0 0 0 127156086.0917054 6998362.137855968 6998362.137855968 21174044.84808031 0 0 0 0 0 119759078.5715213 6976919.844500561 6976919.844500561 19108677.3483173 0 0 0 0 0 124279402.9259331 7663053.335861937 7663053.335861937 11416371.05339958 0 0 0 0 0 118567039.8526387 7568568.75463532 7568568.75463532 11003907.0705437 0 0 0 0 0 109993494.2537827 3811306.641710666 3811306.641710666 389537.9989525492 0 0 0 0 0 109901009.4318846 4918459.747442947 4918459.747442947 3915968.195392444 0 0 0 0 0 111591577.6579083 4362585.052271202 4362585.052271202 878365.7927462239 0 0 0 0 0 111725781.9939631 4426845.629437382 4426845.629437382 715891.2722619927 0 0 0 0 0 111632377.0864448 5675792.697344588 5675792.697344588 5440687.758534603 0 0 0 0 0 113403605.1492517 5166866.864697692 5166866.864697692 2173025.006813061 0 0 0 0 0 113498016.209249 6475316.5492367 6475316.5492367 7782003.05591057 0 0 0 0 0 116641625.3931692 6163736.476992986 6163736.476992986 4270609.245691796 0 0 0 0 0 113507688.3146066 5244334.214738312 5244334.214738312 1891543.758831926 0 0 0 0 0 121864493.5255735 6199757.158575807 6199757.158575807 3314203.054643296 0 0 0 0 0 116688437.9815015 6366684.792033235 6366684.792033235 4257838.486971119 0 0 0 0 0 118734667.2459789 7502032.886418435 7502032.886418435 11027313.22786908 0 0 0 0 0 125623718.1159409 -236015.5115023183 -236015.5115023183 30513922.6521715 0 0 0 0 0 142372364.797813 487729.8196304556 487729.8196304556 36213113.30006191 0 0 0 0 0 132675955.0717755 4354872.478978201 4354872.478978201 31404329.95753184 0 0 0 0 0 121290226.0966775 4259832.490247503 4259832.490247503 25437699.08812565 0 0 0 0 0 132286493.4191114 4878610.388110533 4878610.388110533 29819451.6381999 0 0 0 0 0 127213044.4614802 7129099.635432484 7129099.635432484 21938417.47032667 0 0 0 0 0 124281125.8276566 7715689.740728268 7715689.740728268 11816378.17002473 0 0 0 0 0 119624833.3531575 6857401.986533902 6857401.986533902 18635389.84358528 0 0 0 0 0 127037774.0011941 7397002.492000196 7397002.492000196 21063274.85207113 0 0 0 0 0 124198596.5725249 7759443.292573218 7759443.292573218 11369197.0792756 0 0 0 0 0 121656174.4520414 6091600.184830924 6091600.184830924 3186680.092150806 0 0 0 0 0 118834548.6703824 7553555.063929155 7553555.063929155 11085683.14378231 0 0 0 0 0 111401092.0653591 2675697.184501411 2675697.184501411 -2227231.85597068 0 0 0 0 0 109882364.1111589 3783851.228677646 3783851.228677646 445750.2157099812 0 0 0 0 0 111734854.7441832 4381079.056214646 4381079.056214646 835630.0368703995 0 0 0 0 0 113845121.2063817 3028542.275312033 3028542.275312033 -2466068.098540687 0 0 0 0 0 111576433.1343697 4381020.298794689 4381020.298794689 915162.3255870773 0 0 0 0 0 113550994.451115 5219328.67929622 5219328.67929622 1956594.22269744 0 0 0 0 0 116932850.3032865 6282013.776899004 6282013.776899004 3961913.001886595 0 0 0 0 0 115893897.1407758 4221413.495859978 4221413.495859978 -857121.2630134405 0 0 0 0 0 113374041.5554728 5147725.953825866 5147725.953825866 2122032.120603308 0 0 0 0 0 118792419.7082905 3638152.452734093 3638152.452734093 -2374296.675497375 0 0 0 0 0 117042843.6264133 6431142.840717219 6431142.840717219 4328407.63457848 0 0 0 0 0 121597782.0440067 6123623.094997413 6123623.094997413 3272785.670086241 0 0 0 0 0 131421158.9338333 5132220.804755634 5132220.804755634 29827060.96825522 0 0 0 0 0 142825039.4559358 174731.9866035237 174731.9866035237 37596527.14661347 0 0 0 0 0 154974405.3683327 1585602.301648014 1585602.301648014 34197625.47022761 0 0 0 0 0 126384161.3058487 7654602.300120709 7654602.300120709 20971013.49123754 0 0 0 0 0 132680811.2489281 4625557.680495111 4625557.680495111 30666824.81395741 0 0 0 0 0 141223423.9006888 5184680.496864336 5184680.496864336 24109314.933399 0 0 0 0 0 133444234.4004268 6265097.904907306 6265097.904907306 12398826.1880799 0 0 0 0 0 123898996.4032241 7989961.03037395 7989961.03037395 11166017.58687253 0 0 0 0 0 127195473.9642105 7347480.660458487 7347480.660458487 21679399.96730166 0 0 0 0 0 124263169.1636343 7682844.365016823 7682844.365016823 11359653.75336527 0 0 0 0 0 128121242.1083251 4648150.76527114 4648150.76527114 1851352.870490836 0 0 0 0 0 121508454.2532197 6250942.413721737 6250942.413721737 3140130.26126449 0 0 0 0 0 109640885.0732899 2340616.398364334 2340616.398364334 -2041321.310961633 0 0 0 0 0 110045999.8847049 3854289.183888269 3854289.183888269 557764.74496142 0 0 0 0 0 111217589.4855983 2592733.805525492 2592733.805525492 -2359718.910928635 0 0 0 0 0 111340441.0458419 2605910.28929237 2605910.28929237 -2402985.02393136 0 0 0 0 0 111821662.1865753 4490837.543608786 4490837.543608786 1083259.885360513 0 0 0 0 0 113507193.7666308 2874453.613436955 2874453.613436955 -2701633.234309583 0 0 0 0 0 115718463.4623947 4086513.673755862 4086513.673755862 -1021986.232104723 0 0 0 0 0 113577975.037887 2821934.462228227 2821934.462228227 -2987252.161965297 0 0 0 0 0 113776644.369171 5383724.911013522 5383724.911013522 2426808.654438074 0 0 0 0 0 118999704.2173533 3763840.371416871 3763840.371416871 -2110634.857136278 0 0 0 0 0 115847762.2221951 4163317.197036463 4163317.197036463 -1081861.69368871 0 0 0 0 0 116971575.9970753 6379619.490131318 6379619.490131318 4204216.029622412 0 0 0 0 0 123199811.9615842 1781728.966369198 1781728.966369198 -4829323.21369555 0 0 0 0 0 118699302.6519125 3772231.111418615 3772231.111418615 -2138367.6711278 0 0 0 0 0 121649300.3396178 5996052.243371067 5996052.243371067 2832370.077046869 0 0 0 0 0 142582334.2928972 3288.024682880521 3288.024682880521 36664253.63091686 0 0 0 0 0 179174702.1987352 488741.5232590887 488741.5232590887